
                                 *****************
                                 * O   R   C   A *
                                 *****************

           --- An Ab Initio, DFT and Semiempirical electronic structure package ---

                  #######################################################
                  #                        -***-                        #
                  #          Department of theory and spectroscopy      #
                  #               Directorship: Frank Neese             #
                  #        Max Planck Institute fuer Kohlenforschung    #
                  #                Kaiser Wilhelm Platz 1               #
                  #                 D-45470 Muelheim/Ruhr               #
                  #                      Germany                        #
                  #                                                     #
                  #                  All rights reserved                #
                  #                        -***-                        #
                  #######################################################


                         Program Version 4.2.0 -  RELEASE  -


 With contributions from (in alphabetic order):
   Daniel Aravena         : Magnetic Suceptibility
   Michael Atanasov       : Ab Initio Ligand Field Theory (pilot matlab implementation)
   Alexander A. Auer      : GIAO ZORA, VPT2
   Ute Becker             : Parallelization
   Giovanni Bistoni       : ED, misc. LED, open-shell LED, HFLED
   Martin Brehm           : Molecular dynamics
   Dmytro Bykov           : SCF Hessian
   Vijay G. Chilkuri      : MRCI spin determinant printing, contributions to CSF-ICE
   Dipayan Datta          : RHF DLPNO-CCSD density
   Achintya Kumar Dutta   : EOM-CC, STEOM-CC
   Dmitry Ganyushin       : Spin-Orbit,Spin-Spin,Magnetic field MRCI
   Miquel Garcia          : C-PCM Hessian, Gaussian charge scheme
   Yang Guo               : DLPNO-NEVPT2, CIM, IAO-localization
   Andreas Hansen         : Spin unrestricted coupled pair/coupled cluster methods
   Benjamin Helmich-Paris : CASSCF linear response (MC-RPA)
   Lee Huntington         : MR-EOM, pCC
   Robert Izsak           : Overlap fitted RIJCOSX, COSX-SCS-MP3, EOM
   Christian Kollmar      : KDIIS, OOCD, Brueckner-CCSD(T), CCSD density
   Simone Kossmann        : Meta GGA functionals, TD-DFT gradient, OOMP2, MP2 Hessian
   Martin Krupicka        : AUTO-CI
   Lucas Lang             : DCDCAS
   Dagmar Lenk            : GEPOL surface, SMD
   Dimitrios Liakos       : Extrapolation schemes; Compound Job, initial MDCI parallelization
   Dimitrios Manganas     : Further ROCIS development; embedding schemes
   Dimitrios Pantazis     : SARC Basis sets
   Taras Petrenko         : DFT Hessian,TD-DFT gradient, ASA, ECA, R-Raman, ABS, FL, XAS/XES, NRVS
   Peter Pinski           : DLPNO-MP2, DLPNO-MP2 Gradient
   Christoph Reimann      : Effective Core Potentials
   Marius Retegan         : Local ZFS, SOC
   Christoph Riplinger    : Optimizer, TS searches, QM/MM, DLPNO-CCSD(T), (RO)-DLPNO pert. Triples
   Tobias Risthaus        : Range-separated hybrids, TD-DFT gradient, RPA, STAB
   Michael Roemelt        : Original ROCIS implementation
   Masaaki Saitow         : Open-shell DLPNO-CCSD energy and density
   Barbara Sandhoefer     : DKH picture change effects
   Avijit Sen             : IP-ROCIS
   Kantharuban Sivalingam : CASSCF convergence, NEVPT2, FIC-MRCI
   Bernardo de Souza      : ESD, SOC TD-DFT
   Georgi Stoychev        : AutoAux, RI-MP2 NMR
   Willem Van den Heuvel  : Paramagnetic NMR
   Boris Wezisla          : Elementary symmetry handling
   Frank Wennmohs         : Technical directorship


 We gratefully acknowledge several colleagues who have allowed us to
 interface, adapt or use parts of their codes:
   Stefan Grimme, W. Hujo, H. Kruse,             : VdW corrections, initial TS optimization,
                  C. Bannwarth                     DFT functionals, gCP, sTDA/sTD-DF
   Ed Valeev, F. Pavosevic, A. Kumar             : LibInt (2-el integral package), F12 methods
   Garnet Chan, S. Sharma, J. Yang, R. Olivares  : DMRG
   Ulf Ekstrom                                   : XCFun DFT Library
   Mihaly Kallay                                 : mrcc  (arbitrary order and MRCC methods)
   Andreas Klamt, Michael Diedenhofen            : otool_cosmo (COSMO solvation model)
   Jiri Pittner, Ondrej Demel                    : Mk-CCSD
   Frank Weinhold                                : gennbo (NPA and NBO analysis)
   Christopher J. Cramer and Donald G. Truhlar   : smd solvation model
   Lars Goerigk                                  : TD-DFT with DH, B97 family of functionals
   V. Asgeirsson, H. Jonsson                     : NEB implementation
   FAccTs GmbH                                   : IRC, NEB, NEB-TS, Multilevel, MM, QM/MM, CI optimization
   S Lehtola, MJT Oliveira, MAL Marques          : LibXC Library


 Your calculation uses the libint2 library for the computation of 2-el integrals
 For citations please refer to: http://libint.valeyev.net

 Your ORCA version has been built with support for libXC version: 4.2.3
 For citations please refer to: https://tddft.org/programs/libxc/

 This ORCA versions uses:
   CBLAS   interface :  Fast vector & matrix operations
   LAPACKE interface :  Fast linear algebra routines
   SCALAPACK package :  Parallel linear algebra routines


Your calculation utilizes the atom-pairwise dispersion correction
with the zero-damping scheme (D30)
Cite in your paper:
S.Grimme, J.Antony, S.Ehrlich and H.Krieg, J.Chem.Phys., 132, (2010), 154104 
   

XCFun DFT library Copyright 2009-2010 Ulf Ekstrom and contributors.
See http://admol.org/xcfun for more information. This is free soft-
ware; see the source code for copying conditions. There is ABSOLUTELY
NO WARRANTY; not even for MERCHANTABILITY or FITNESS FOR A PARTICULAR
PURPOSE. For details see the documentation. Scientific users of this 
library should cite U. Ekstrom, L. Visscher, R. Bast, A. J. Thorvald-
sen and K. Ruud; J.Chem.Theor.Comp. 2010, DOI: 10.1021/ct100117s
XCFun Version 0.99 
----- Orbital basis set information -----
Your calculation utilizes the basis: def2-SVP
   F. Weigend and R. Ahlrichs, Phys. Chem. Chem. Phys. 7, 3297 (2005).

================================================================================
                                        WARNINGS
                       Please study these warnings very carefully!
================================================================================


WARNING: Geometry Optimization
  ===> : Switching off AutoStart
         For restart on a previous wavefunction, please use MOREAD

INFO   : the flag for use of LIBINT has been found!

================================================================================
                                       INPUT FILE
================================================================================
NAME = 000067015.inp
|  1> # ORCA input file
|  2> # -45.01291849
|  3> ! wB97X-D3 def2-SVP Opt
|  4> * xyz 0 1
|  5>    C        3.36150         1.14860        -0.08850
|  6>    C        3.25040        -0.21280        -0.05650
|  7>    C        1.98400        -0.82620         0.01080
|  8>    C        1.87890        -2.23410         0.01460
|  9>    C        0.66480        -2.85930         0.03460
| 10>    C       -0.50270        -2.08520         0.04190
| 11>    C       -0.43260        -0.72140         0.05850
| 12>    C        0.79890        -0.02700         0.05880
| 13>    C        0.95740         1.38890         0.07250
| 14>    C        2.21610         1.94250        -0.01980
| 15>    H        2.29140         3.01840        -0.02670
| 16>    O       -0.08470         2.26170         0.12180
| 17>    H       -0.81980         1.92260         0.68830
| 18>    S       -2.02520         0.08400         0.04200
| 19>    O       -2.09980         1.02040         1.14270
| 20>    O       -3.05930        -0.88230        -0.07340
| 21>    O       -1.99470         0.91620        -1.32250
| 22>    H       -1.45320         1.71560        -1.23580
| 23>    H       -1.47810        -2.54280         0.02800
| 24>    H        0.59330        -3.93550         0.03350
| 25>    H        2.79180        -2.81090        -0.00740
| 26>    H        4.12730        -0.84100        -0.09110
| 27>    H        4.32930         1.62160        -0.15280
| 28> *
| 29> 
| 30>                          ****END OF INPUT****
================================================================================

                       *****************************
                       * Geometry Optimization Run *
                       *****************************

Geometry optimization settings:
Update method            Update   .... BFGS
Choice of coordinates    CoordSys .... Z-matrix Internals
Initial Hessian          InHess   .... Almoef's Model

Convergence Tolerances:
Energy Change            TolE     ....  5.0000e-06 Eh
Max. Gradient            TolMAXG  ....  3.0000e-04 Eh/bohr
RMS Gradient             TolRMSG  ....  1.0000e-04 Eh/bohr
Max. Displacement        TolMAXD  ....  4.0000e-03 bohr
RMS Displacement         TolRMSD  ....  2.0000e-03 bohr
Strict Convergence                ....  False
------------------------------------------------------------------------------
                        ORCA OPTIMIZATION COORDINATE SETUP
------------------------------------------------------------------------------

The optimization will be done in new redundant internal coordinates
Making redundant internal coordinates   ...  (new redundants) done
Evaluating the initial hessian          ...  (Almloef) done
Evaluating the coordinates              ...  done
Calculating the B-matrix                .... done
Calculating the G-matrix                .... done
Diagonalizing the G-matrix              .... done
Small eigenvalue found = 1.729e-02
The first mode is                       ....   54
The number of degrees of freedom        ....   63

    -----------------------------------------------------------------
                    Redundant Internal Coordinates


    -----------------------------------------------------------------
         Definition                    Initial Value    Approx d2E/dq
    -----------------------------------------------------------------
      1. B(C   1,C   0)                  1.3663         0.681631   
      2. B(C   2,C   1)                  1.4087         0.583223   
      3. B(C   3,C   2)                  1.4118         0.576663   
      4. B(C   4,C   3)                  1.3658         0.682974   
      5. B(C   5,C   4)                  1.4008         0.600414   
      6. B(C   6,C   5)                  1.3657         0.683134   
      7. B(C   7,C   2)                  1.4302         0.539006   
      8. B(C   7,C   6)                  1.4138         0.572524   
      9. B(C   8,C   7)                  1.4248         0.549796   
     10. B(C   9,C   8)                  1.3782         0.652578   
     11. B(C   9,C   0)                  1.3953         0.612688   
     12. B(H  10,C   9)                  1.0786         0.375565   
     13. B(O  11,C   8)                  1.3602         0.624305   
     14. B(H  12,O  11)                  0.9881         0.469010   
     15. B(S  13,C   6)                  1.7847         0.395107   
     16. B(O  14,S  13)                  1.4470         1.223560   
     17. B(O  15,S  13)                  1.4200         1.351361   
     18. B(O  16,S  13)                  1.5985         0.701330   
     19. B(H  17,O  16)                  0.9694         0.502266   
     20. B(H  18,C   5)                  1.0775         0.377028   
     21. B(H  19,C   4)                  1.0786         0.375538   
     22. B(H  20,C   3)                  1.0801         0.373468   
     23. B(H  21,C   1)                  1.0793         0.374602   
     24. B(H  22,C   0)                  1.0791         0.374784   
     25. A(C   1,C   0,C   9)          119.9356         0.440602   
     26. A(C   9,C   0,H  22)          119.3238         0.354593   
     27. A(C   1,C   0,H  22)          120.7351         0.361081   
     28. A(C   0,C   1,C   2)          120.5360         0.436702   
     29. A(C   0,C   1,H  21)          120.8747         0.361051   
     30. A(C   2,C   1,H  21)          118.5871         0.351618   
     31. A(C   1,C   2,C   7)          120.2109         0.418709   
     32. A(C   1,C   2,C   3)          120.0836         0.423787   
     33. A(C   3,C   2,C   7)          119.7010         0.417866   
     34. A(C   2,C   3,H  20)          118.0068         0.350767   
     35. A(C   2,C   3,C   4)          121.5142         0.435967   
     36. A(C   4,C   3,H  20)          120.4770         0.360986   
     37. A(C   3,C   4,C   5)          119.2090         0.439151   
     38. A(C   5,C   4,H  19)          119.7449         0.353500   
     39. A(C   3,C   4,H  19)          121.0425         0.361326   
     40. A(C   6,C   5,H  18)          118.0810         0.361585   
     41. A(C   4,C   5,H  18)          121.3129         0.353737   
     42. A(C   4,C   5,C   6)          120.6048         0.439170   
     43. A(C   7,C   6,S  13)          123.7550         0.416528   
     44. A(C   5,C   6,S  13)          113.8739         0.429888   
     45. A(C   5,C   6,C   7)          122.3571         0.435420   
     46. A(C   6,C   7,C   8)          125.8026         0.418806   
     47. A(C   2,C   7,C   8)          117.6100         0.414334   
     48. A(C   2,C   7,C   6)          116.5716         0.417330   
     49. A(C   7,C   8,C   9)          120.0093         0.428722   
     50. A(C   9,C   8,O  11)          116.3847         0.435759   
     51. A(C   7,C   8,O  11)          123.5575         0.422566   
     52. A(C   0,C   9,H  10)          120.6602         0.354718   
     53. A(C   0,C   9,C   8)          121.6328         0.437153   
     54. A(C   8,C   9,H  10)          117.7037         0.358539   
     55. A(C   8,O  11,H  12)          111.7493         0.364061   
     56. A(O  15,S  13,O  16)          107.3848         0.567015   
     57. A(O  14,S  13,O  16)          108.2632         0.556386   
     58. A(C   6,S  13,O  16)          103.0497         0.453429   
     59. A(O  14,S  13,O  15)          117.6860         0.631186   
     60. A(C   6,S  13,O  15)          110.0904         0.511752   
     61. A(C   6,S  13,O  14)          109.3290         0.502352   
     62. A(S  13,O  16,H  17)          111.3221         0.396330   
     63. D(H  21,C   1,C   0,H  22)      0.2320         0.032581   
     64. D(C   2,C   1,C   0,H  22)   -179.2112         0.032581   
     65. D(C   2,C   1,C   0,C   9)      1.6448         0.032581   
     66. D(H  21,C   1,C   0,C   9)   -178.9121         0.032581   
     67. D(C   7,C   2,C   1,H  21)    179.9689         0.023382   
     68. D(C   7,C   2,C   1,C   0)     -0.5754         0.023382   
     69. D(C   3,C   2,C   1,H  21)     -0.8082         0.023382   
     70. D(C   3,C   2,C   1,C   0)    178.6475         0.023382   
     71. D(H  20,C   3,C   2,C   7)   -179.1016         0.022835   
     72. D(C   4,C   3,C   2,C   7)      1.4127         0.022835   
     73. D(H  20,C   3,C   2,C   1)      1.6714         0.022835   
     74. D(C   4,C   3,C   2,C   1)   -177.8142         0.022835   
     75. D(C   5,C   4,C   3,H  20)   -179.0125         0.032720   
     76. D(C   5,C   4,C   3,C   2)      0.4606         0.032720   
     77. D(H  19,C   4,C   3,C   2)    179.7603         0.032720   
     78. D(H  19,C   4,C   3,H  20)      0.2872         0.032720   
     79. D(H  18,C   5,C   4,H  19)     -1.1502         0.024854   
     80. D(H  18,C   5,C   4,C   3)    178.1588         0.024854   
     81. D(C   6,C   5,C   4,H  19)    179.2641         0.024854   
     82. D(C   6,C   5,C   4,C   3)     -1.4269         0.024854   
     83. D(S  13,C   6,C   5,H  18)     -0.4214         0.032736   
     84. D(S  13,C   6,C   5,C   4)    179.1774         0.032736   
     85. D(C   7,C   6,C   5,H  18)   -179.1069         0.032736   
     86. D(C   7,C   6,C   5,C   4)      0.4919         0.032736   
     87. D(C   2,C   7,C   6,S  13)   -177.2144         0.022494   
     88. D(C   2,C   7,C   6,C   5)      1.3399         0.022494   
     89. D(C   8,C   7,C   2,C   3)    179.1090         0.019849   
     90. D(C   8,C   7,C   2,C   1)     -1.6651         0.019849   
     91. D(C   6,C   7,C   2,C   3)     -2.2512         0.019849   
     92. D(C   8,C   7,C   6,C   5)    179.8538         0.022494   
     93. D(C   6,C   7,C   2,C   1)    176.9747         0.019849   
     94. D(C   8,C   7,C   6,S  13)      1.2995         0.022494   
     95. D(O  11,C   8,C   7,C   6)      1.7447         0.020678   
     96. D(O  11,C   8,C   7,C   2)   -179.7552         0.020678   
     97. D(C   9,C   8,C   7,C   6)   -175.6272         0.020678   
     98. D(C   9,C   8,C   7,C   2)      2.8729         0.020678   
     99. D(H  10,C   9,C   8,O  11)      1.1893         0.029668   
    100. D(C   0,C   9,C   8,O  11)   -179.4638         0.029668   
    101. D(C   0,C   9,C   8,C   7)     -1.9084         0.029668   
    102. D(H  10,C   9,C   0,H  22)     -0.2331         0.025939   
    103. D(H  10,C   9,C   0,C   1)    178.9230         0.025939   
    104. D(H  10,C   9,C   8,C   7)    178.7446         0.029668   
    105. D(C   8,C   9,C   0,H  22)   -179.5610         0.025939   
    106. D(C   8,C   9,C   0,C   1)     -0.4048         0.025939   
    107. D(H  12,O  11,C   8,C   9)   -146.1565         0.028624   
    108. D(H  12,O  11,C   8,C   7)     36.3839         0.028624   
    109. D(O  16,S  13,C   6,C   7)     60.6006         0.004246   
    110. D(O  16,S  13,C   6,C   5)   -118.0639         0.004246   
    111. D(O  15,S  13,C   6,C   7)    174.8907         0.004246   
    112. D(O  15,S  13,C   6,C   5)     -3.7738         0.004246   
    113. D(O  14,S  13,C   6,C   7)    -54.3733         0.004246   
    114. D(O  14,S  13,C   6,C   5)    126.9622         0.004246   
    115. D(H  17,O  16,S  13,O  15)    167.0961         0.011190   
    116. D(H  17,O  16,S  13,O  14)     39.0705         0.011190   
    117. D(H  17,O  16,S  13,C   6)    -76.6688         0.011190   
    -----------------------------------------------------------------

Number of atoms                         .... 23
Number of degrees of freedom            .... 117

         *************************************************************
         *                GEOMETRY OPTIMIZATION CYCLE   1            *
         *************************************************************
---------------------------------
CARTESIAN COORDINATES (ANGSTROEM)
---------------------------------
  C      3.361500    1.148600   -0.088500
  C      3.250400   -0.212800   -0.056500
  C      1.984000   -0.826200    0.010800
  C      1.878900   -2.234100    0.014600
  C      0.664800   -2.859300    0.034600
  C     -0.502700   -2.085200    0.041900
  C     -0.432600   -0.721400    0.058500
  C      0.798900   -0.027000    0.058800
  C      0.957400    1.388900    0.072500
  C      2.216100    1.942500   -0.019800
  H      2.291400    3.018400   -0.026700
  O     -0.084700    2.261700    0.121800
  H     -0.819800    1.922600    0.688300
  S     -2.025200    0.084000    0.042000
  O     -2.099800    1.020400    1.142700
  O     -3.059300   -0.882300   -0.073400
  O     -1.994700    0.916200   -1.322500
  H     -1.453200    1.715600   -1.235800
  H     -1.478100   -2.542800    0.028000
  H      0.593300   -3.935500    0.033500
  H      2.791800   -2.810900   -0.007400
  H      4.127300   -0.841000   -0.091100
  H      4.329300    1.621600   -0.152800

----------------------------
CARTESIAN COORDINATES (A.U.)
----------------------------
  NO LB      ZA    FRAG     MASS         X           Y           Z
   0 C     6.0000    0    12.011    6.352314    2.170539   -0.167241
   1 C     6.0000    0    12.011    6.142366   -0.402134   -0.106770
   2 C     6.0000    0    12.011    3.749217   -1.561292    0.020409
   3 C     6.0000    0    12.011    3.550606   -4.221837    0.027590
   4 C     6.0000    0    12.011    1.256290   -5.403294    0.065385
   5 C     6.0000    0    12.011   -0.949965   -3.940457    0.079180
   6 C     6.0000    0    12.011   -0.817496   -1.363248    0.110549
   7 C     6.0000    0    12.011    1.509702   -0.051023    0.111116
   8 C     6.0000    0    12.011    1.809224    2.624641    0.137005
   9 C     6.0000    0    12.011    4.187822    3.670793   -0.037417
  10 H     1.0000    0     1.008    4.330118    5.703949   -0.050456
  11 O     8.0000    0    15.999   -0.160060    4.273994    0.230169
  12 H     1.0000    0     1.008   -1.549197    3.633187    1.300698
  13 S    16.0000    0    32.060   -3.827073    0.158737    0.079368
  14 O     8.0000    0    15.999   -3.968047    1.928277    2.159390
  15 O     8.0000    0    15.999   -5.781239   -1.667305   -0.138706
  16 O     8.0000    0    15.999   -3.769437    1.731367   -2.499163
  17 H     1.0000    0     1.008   -2.746150    3.242014   -2.335324
  18 H     1.0000    0     1.008   -2.793204   -4.805196    0.052912
  19 H     1.0000    0     1.008    1.121175   -7.437017    0.063306
  20 H     1.0000    0     1.008    5.275737   -5.311831   -0.013984
  21 H     1.0000    0     1.008    7.799467   -1.589260   -0.172154
  22 H     1.0000    0     1.008    8.181191    3.064380   -0.288750

--------------------------------
INTERNAL COORDINATES (ANGSTROEM)
--------------------------------
 C      0   0   0     0.000000000000     0.00000000     0.00000000
 C      1   0   0     1.366300541609     0.00000000     0.00000000
 C      2   1   0     1.408743344261   120.53595091     0.00000000
 C      3   2   1     1.411822531340   120.08361022   178.64753400
 C      4   3   2     1.365764932190   121.51415036   182.18579275
 C      5   4   3     1.400835589925   119.20896879     0.46061382
 C      6   5   4     1.365701288716   120.60480814   358.57308998
 C      7   6   5     1.413783469984   122.35707296     0.49192344
 C      8   7   6     1.424809724139   125.80263738   179.85375914
 C      9   8   7     1.378157443836   120.00928670   184.37281003
 H     10   9   8     1.078553897587   117.70374686   178.74464638
 O      9   8   7     1.360214225775   123.55747272     1.74472367
 H     12   9   8     0.988070377048   111.74931883    36.38386053
 S      7   6   5     1.784745407614   113.87391764   179.17744831
 O     14   7   6     1.447048931446   109.32895972   126.96218232
 O     14   7   6     1.420005514074   110.09037964   356.22619992
 O     14   7   6     1.598545382528   103.04966189   241.93613328
 H     17  14   7     0.969422250621   111.32208146   283.33115620
 H      6   5   4     1.077495303934   121.31292680   178.15878723
 H      5   4   3     1.078573085145   121.04245900   179.76032696
 H      4   3   2     1.080078075882   118.00681789     1.67144285
 H      2   1   3     1.079252523740   120.87470529   179.44314879
 H      1   2   3     1.079120164764   120.73510615   180.78880674

---------------------------
INTERNAL COORDINATES (A.U.)
---------------------------
 C      0   0   0     0.000000000000     0.00000000     0.00000000
 C      1   0   0     2.581933840269     0.00000000     0.00000000
 C      2   1   0     2.662139113638   120.53595091     0.00000000
 C      3   2   1     2.667957933933   120.08361022   178.64753400
 C      4   3   2     2.580921685153   121.51415036   182.18579275
 C      5   4   3     2.647195623608   119.20896879     0.46061382
 C      6   5   4     2.580801416416   120.60480814   358.57308998
 C      7   6   5     2.671663570935   122.35707296     0.49192344
 C      8   7   6     2.692500171570   125.80263738   179.85375914
 C      9   8   7     2.604340138275   120.00928670   184.37281003
 H     10   9   8     2.038171487113   117.70374686   178.74464638
 O      9   8   7     2.570432370178   123.55747272     1.74472367
 H     12   9   8     1.867182413661   111.74931883    36.38386053
 S      7   6   5     3.372680039165   113.87391764   179.17744831
 O     14   7   6     2.734526182817   109.32895972   126.96218232
 O     14   7   6     2.683421530258   110.09037964   356.22619992
 O     14   7   6     3.020812985621   103.04966189   241.93613328
 H     17  14   7     1.831942561804   111.32208146   283.33115620
 H      6   5   4     2.036171035022   121.31292680   178.15878723
 H      5   4   3     2.038207746343   121.04245900   179.76032696
 H      4   3   2     2.041051766669   118.00681789     1.67144285
 H      2   1   3     2.039491699213   120.87470529   179.44314879
 H      1   2   3     2.039241576996   120.73510615   180.78880674

---------------------
BASIS SET INFORMATION
---------------------
There are 4 groups of distinct atoms

 Group   1 Type C   : 7s4p1d contracted to 3s2p1d pattern {511/31/1}
 Group   2 Type H   : 4s1p contracted to 2s1p pattern {31/1}
 Group   3 Type O   : 7s4p1d contracted to 3s2p1d pattern {511/31/1}
 Group   4 Type S   : 10s7p1d contracted to 4s3p1d pattern {5311/511/1}

Atom   0C    basis set group =>   1
Atom   1C    basis set group =>   1
Atom   2C    basis set group =>   1
Atom   3C    basis set group =>   1
Atom   4C    basis set group =>   1
Atom   5C    basis set group =>   1
Atom   6C    basis set group =>   1
Atom   7C    basis set group =>   1
Atom   8C    basis set group =>   1
Atom   9C    basis set group =>   1
Atom  10H    basis set group =>   2
Atom  11O    basis set group =>   3
Atom  12H    basis set group =>   2
Atom  13S    basis set group =>   4
Atom  14O    basis set group =>   3
Atom  15O    basis set group =>   3
Atom  16O    basis set group =>   3
Atom  17H    basis set group =>   2
Atom  18H    basis set group =>   2
Atom  19H    basis set group =>   2
Atom  20H    basis set group =>   2
Atom  21H    basis set group =>   2
Atom  22H    basis set group =>   2
------------------------------------------------------------------------------
                           ORCA GTO INTEGRAL CALCULATION
------------------------------------------------------------------------------

                         BASIS SET STATISTICS AND STARTUP INFO

 # of primitive gaussian shells          ...  226
 # of primitive gaussian functions       ...  428
 # of contracted shells                  ...  116
 # of contracted basis functions         ...  254
 Highest angular momentum                ...    2
 Maximum contraction depth               ...    5
 Integral package used                   ... LIBINT
 Integral threshhold            Thresh   ...  2.500e-11
 Primitive cut-off              TCut     ...  2.500e-12


------------------------------ INTEGRAL EVALUATION ----------------------------


 * One electron integrals 
 Pre-screening matrix                    ... done
 Shell pair data                         ... done (   0.002 sec)

-------------------------------------------------------------------------------
                                 ORCA SCF
-------------------------------------------------------------------------------

------------
SCF SETTINGS
------------
Hamiltonian:
 Density Functional     Method          .... DFT(GTOs)
 Exchange Functional    Exchange        .... WB97X-D3
 Correlation Functional Correlation     .... WB97X-D3
 Gradients option       PostSCFGGA      .... off
 Hybrid DFT is turned on
   Fraction HF Exchange ScalHFX         ....  0.195728
   Scaling of DF-GGA-X  ScalDFX         ....  0.000000
   Scaling of DF-GGA-C  ScalDFC         ....  1.000000
   Scaling of DF-LDA-C  ScalLDAC        ....  1.000000
   Perturbative correction              ....  0.000000
   Density functional embedding theory  .... OFF
 Long-range corrected/Screened/Range-Separated Hybrid DFT is turned on
   Amount of maximum screened exact exchange              ....  0.804272
   Range separation parameter mu (erf(mu*r12)/r12)        ....  0.250000


General Settings:
 Integral files         IntName         .... 000067015
 Hartree-Fock type      HFTyp           .... RHF
 Total Charge           Charge          ....    0
 Multiplicity           Mult            ....    1
 Number of Electrons    NEL             ....  116
 Basis Dimension        Dim             ....  254
 Nuclear Repulsion      ENuc            ....   1161.0066419141 Eh

Convergence Acceleration:
 DIIS                   CNVDIIS         .... on
   Start iteration      DIISMaxIt       ....    12
   Startup error        DIISStart       ....  0.200000
   # of expansion vecs  DIISMaxEq       ....     5
   Bias factor          DIISBfac        ....   1.050
   Max. coefficient     DIISMaxC        ....  10.000
 Newton-Raphson         CNVNR           .... off
 SOSCF                  CNVSOSCF        .... on
   Start iteration      SOSCFMaxIt      ....   150
   Startup grad/error   SOSCFStart      ....  0.003300
 Level Shifting         CNVShift        .... on
   Level shift para.    LevelShift      ....    0.2500
   Turn off err/grad.   ShiftErr        ....    0.0010
 Zerner damping         CNVZerner       .... off
 Static damping         CNVDamp         .... on
   Fraction old density DampFac         ....    0.7000
   Max. Damping (<1)    DampMax         ....    0.9800
   Min. Damping (>=0)   DampMin         ....    0.0000
   Turn off err/grad.   DampErr         ....    0.1000
 Fernandez-Rico         CNVRico         .... off

SCF Procedure:
 Maximum # iterations   MaxIter         ....   125
 SCF integral mode      SCFMode         .... Direct
   Integral package                     .... LIBINT
 Reset frequency        DirectResetFreq ....    20
 Integral Threshold     Thresh          ....  2.500e-11 Eh
 Primitive CutOff       TCut            ....  2.500e-12 Eh

Convergence Tolerance:
 Convergence Check Mode ConvCheckMode   .... Total+1el-Energy
 Convergence forced     ConvForced      .... 0
 Energy Change          TolE            ....  1.000e-08 Eh
 1-El. energy change                    ....  1.000e-05 Eh
 Orbital Gradient       TolG            ....  1.000e-05
 Orbital Rotation angle TolX            ....  1.000e-05
 DIIS Error             TolErr          ....  5.000e-07


Diagonalization of the overlap matrix:
Smallest eigenvalue                        ... 2.205e-04
Time for diagonalization                   ...    0.009 sec
Threshold for overlap eigenvalues          ... 1.000e-08
Number of eigenvalues below threshold      ... 0
Time for construction of square roots      ...    0.004 sec
Total time needed                          ...    0.013 sec

-------------------
DFT GRID GENERATION
-------------------

General Integration Accuracy     IntAcc      ...  4.340
Radial Grid Type                 RadialGrid  ... Gauss-Chebyshev
Angular Grid (max. acc.)         AngularGrid ... Lebedev-110
Angular grid pruning method      GridPruning ... 3 (G Style)
Weight generation scheme         WeightScheme... Becke
Basis function cutoff            BFCut       ...    1.0000e-11
Integration weight cutoff        WCut        ...    1.0000e-14
Grids for H and He will be reduced by one unit

# of grid points (after initial pruning)     ...  31582 (   0.0 sec)
# of grid points (after weights+screening)   ...  28640 (   0.1 sec)
nearest neighbour list constructed           ...    0.0 sec
Grid point re-assignment to atoms done       ...    0.0 sec
Grid point division into batches done        ...    0.0 sec
Reduced shell lists constructed in    0.2 sec

Total number of grid points                  ...    28640
Total number of batches                      ...      458
Average number of points per batch           ...       62
Average number of grid points per atom       ...     1245
Average number of shells per batch           ...    70.50 (60.78%)
Average number of basis functions per batch  ...   151.12 (59.49%)
Average number of large shells per batch     ...    51.26 (72.71%)
Average number of large basis fcns per batch ...   109.13 (72.22%)
Maximum spatial batch extension              ...  17.87, 21.01, 35.15 au
Average spatial batch extension              ...   3.34,  3.25,  4.15 au

Time for grid setup =    0.348 sec

------------------------------
INITIAL GUESS: MODEL POTENTIAL
------------------------------
Loading Hartree-Fock densities                     ... done
Calculating cut-offs                               ... done
Setting up the integral package                    ... done
Initializing the effective Hamiltonian             ... done
Starting the Coulomb interaction                   ... done (   0.3 sec)
Reading the grid                                   ... done
Mapping shells                                     ... done
Starting the XC term evaluation                    ... done (   0.3 sec)
  promolecular density results
     # of electrons  =    116.003485476
     EX              =   -111.245630591
     EC              =     -4.050282381
     EX+EC           =   -115.295912972
Transforming the Hamiltonian                       ... done (   0.0 sec)
Diagonalizing the Hamiltonian                      ... done (   0.0 sec)
Back transforming the eigenvectors                 ... done (   0.0 sec)
Now organizing SCF variables                       ... done
                      ------------------
                      INITIAL GUESS DONE (   1.1 sec)
                      ------------------
--------------
SCF ITERATIONS
--------------
ITER       Energy         Delta-E        Max-DP      RMS-DP      [F,P]     Damp
               ***  Starting incremental Fock matrix formation  ***
  0  -1083.6391770292   0.000000000000 0.16367553  0.00247442  0.2525706 0.7000
  1  -1083.8307076714  -0.191530642219 0.08806306  0.00168061  0.1135385 0.7000
                               ***Turning on DIIS***
  2  -1083.9144121266  -0.083704455193 0.08909976  0.00312482  0.0466654 0.0000
  3  -1084.0547393555  -0.140327228872 0.08435244  0.00109751  0.0549105 0.0000
  4  -1084.0766618369  -0.021922481381 0.00986618  0.00024384  0.0080352 0.0000
  5  -1084.0774159212  -0.000754084347 0.00303203  0.00007801  0.0037380 0.0000
                      *** Initiating the SOSCF procedure ***
                           *** Shutting down DIIS ***
                      *** Re-Reading the Fockian *** 
                      *** Removing any level shift *** 
ITER      Energy       Delta-E        Grad      Rot      Max-DP    RMS-DP
  6  -1084.07748357  -0.0000676520  0.000837  0.000837  0.001346  0.000036
               *** Restarting incremental Fock matrix formation ***
  7  -1084.07750275  -0.0000191759  0.000640  0.002093  0.000735  0.000027
  8  -1084.07751198  -0.0000092285  0.000239  0.002228  0.000857  0.000031
  9  -1084.07751585  -0.0000038747  0.000078  0.000320  0.000227  0.000008
 10  -1084.07751633  -0.0000004797  0.000025  0.000073  0.000121  0.000003
 11  -1084.07751636  -0.0000000241  0.000025  0.000059  0.000053  0.000001
 12  -1084.07751638  -0.0000000266  0.000005  0.000026  0.000023  0.000000
 13  -1084.07751638  -0.0000000018  0.000004  0.000009  0.000009  0.000000
                  ***Gradient check signals convergence***
              ***Rediagonalizing the Fockian in SOSCF/NRSCF***

               *****************************************************
               *                     SUCCESS                       *
               *           SCF CONVERGED AFTER  14 CYCLES          *
               *****************************************************

Setting up the final grid:

General Integration Accuracy     IntAcc      ...  4.670
Radial Grid Type                 RadialGrid  ... Gauss-Chebyshev
Angular Grid (max. acc.)         AngularGrid ... Lebedev-302
Angular grid pruning method      GridPruning ... 3 (G Style)
Weight generation scheme         WeightScheme... Becke
Basis function cutoff            BFCut       ...    1.0000e-11
Integration weight cutoff        WCut        ...    1.0000e-14
Grids for H and He will be reduced by one unit

# of grid points (after initial pruning)     ... 120966 (   0.0 sec)
# of grid points (after weights+screening)   ... 107882 (   0.4 sec)
nearest neighbour list constructed           ...    0.0 sec
Grid point re-assignment to atoms done       ...    0.0 sec
Grid point division into batches done        ...    0.4 sec
Reduced shell lists constructed in    1.1 sec

Total number of grid points                  ...   107882
Total number of batches                      ...     1697
Average number of points per batch           ...       63
Average number of grid points per atom       ...     4691
Average number of shells per batch           ...    63.94 (55.12%)
Average number of basis functions per batch  ...   135.86 (53.49%)
Average number of large shells per batch     ...    45.51 (71.19%)
Average number of large basis fcns per batch ...    96.03 (70.68%)
Maximum spatial batch extension              ...  19.51, 19.56, 23.19 au
Average spatial batch extension              ...   2.26,  2.26,  2.50 au

Final grid set up in    1.5 sec
Final integration                            ... done (   1.5 sec)
Change in XC energy                          ...     0.003220341
Integrated number of electrons               ...   115.999796143
Previous integrated no of electrons          ...   116.003131025

----------------
TOTAL SCF ENERGY
----------------

Total Energy       :        -1084.07429605 Eh          -29499.16130 eV

Components:
Nuclear Repulsion  :         1161.00664191 Eh           31592.59686 eV
Electronic Energy  :        -2245.08093796 Eh          -61091.75817 eV
One Electron Energy:        -3789.08357628 Eh         -103106.20593 eV
Two Electron Energy:         1544.00263832 Eh           42014.44776 eV

Virial components:
Potential Energy   :        -2161.24858318 Eh          -58810.56382 eV
Kinetic Energy     :         1077.17428713 Eh           29311.40252 eV
Virial Ratio       :            2.00640566


DFT components:
N(Alpha)           :       57.999898071292 electrons
N(Beta)            :       57.999898071292 electrons
N(Total)           :      115.999796142585 electrons
E(XC)              :      -82.733838697338 Eh       
DFET-embed. en.    :        0.000000000000 Eh       

---------------
SCF CONVERGENCE
---------------

  Last Energy change         ...   -2.0968e-09  Tolerance :   1.0000e-08
  Last MAX-Density change    ...    3.5419e-06  Tolerance :   1.0000e-07
  Last RMS-Density change    ...    9.5851e-08  Tolerance :   5.0000e-09
  Last Orbital Gradient      ...    1.3708e-06  Tolerance :   1.0000e-05
  Last Orbital Rotation      ...    6.0602e-06  Tolerance :   1.0000e-05

             **** THE GBW FILE WAS UPDATED (000067015.gbw) ****
             **** DENSITY FILE WAS UPDATED (000067015.scfp) ****
             **** ENERGY FILE WAS UPDATED (000067015.en.tmp) ****
             **** THE GBW FILE WAS UPDATED (000067015.gbw) ****
             **** DENSITY FILE WAS UPDATED (000067015.scfp) ****
----------------
ORBITAL ENERGIES
----------------

  NO   OCC          E(Eh)            E(eV) 
   0   2.0000     -89.208897     -2427.4975 
   1   2.0000     -19.304875      -525.3124 
   2   2.0000     -19.278974      -524.6076 
   3   2.0000     -19.259190      -524.0692 
   4   2.0000     -19.254805      -523.9499 
   5   2.0000     -10.375442      -282.3301 
   6   2.0000     -10.346889      -281.5532 
   7   2.0000     -10.338079      -281.3134 
   8   2.0000     -10.329016      -281.0668 
   9   2.0000     -10.328344      -281.0485 
  10   2.0000     -10.324693      -280.9492 
  11   2.0000     -10.319868      -280.8179 
  12   2.0000     -10.312744      -280.6240 
  13   2.0000     -10.308223      -280.5010 
  14   2.0000     -10.304996      -280.4132 
  15   2.0000      -8.290810      -225.6044 
  16   2.0000      -6.250172      -170.0758 
  17   2.0000      -6.248973      -170.0432 
  18   2.0000      -6.247004      -169.9896 
  19   2.0000      -1.294177       -35.2163 
  20   2.0000      -1.182255       -32.1708 
  21   2.0000      -1.166417       -31.7398 
  22   2.0000      -1.145893       -31.1813 
  23   2.0000      -1.024470       -27.8772 
  24   2.0000      -0.968629       -26.3577 
  25   2.0000      -0.924030       -25.1441 
  26   2.0000      -0.885562       -24.0974 
  27   2.0000      -0.862939       -23.4818 
  28   2.0000      -0.809408       -22.0251 
  29   2.0000      -0.764645       -20.8070 
  30   2.0000      -0.759152       -20.6576 
  31   2.0000      -0.735023       -20.0010 
  32   2.0000      -0.702917       -19.1274 
  33   2.0000      -0.664625       -18.0854 
  34   2.0000      -0.645927       -17.5766 
  35   2.0000      -0.634758       -17.2727 
  36   2.0000      -0.620763       -16.8918 
  37   2.0000      -0.604207       -16.4413 
  38   2.0000      -0.592840       -16.1320 
  39   2.0000      -0.579143       -15.7593 
  40   2.0000      -0.565724       -15.3941 
  41   2.0000      -0.556036       -15.1305 
  42   2.0000      -0.540047       -14.6954 
  43   2.0000      -0.524217       -14.2647 
  44   2.0000      -0.514446       -13.9988 
  45   2.0000      -0.508734       -13.8434 
  46   2.0000      -0.494812       -13.4645 
  47   2.0000      -0.486094       -13.2273 
  48   2.0000      -0.480798       -13.0832 
  49   2.0000      -0.470871       -12.8131 
  50   2.0000      -0.458209       -12.4685 
  51   2.0000      -0.445725       -12.1288 
  52   2.0000      -0.439291       -11.9537 
  53   2.0000      -0.429862       -11.6971 
  54   2.0000      -0.418408       -11.3855 
  55   2.0000      -0.394707       -10.7405 
  56   2.0000      -0.358840        -9.7645 
  57   2.0000      -0.313373        -8.5273 
  58   0.0000      -0.007254        -0.1974 
  59   0.0000       0.029919         0.8141 
  60   0.0000       0.079854         2.1729 
  61   0.0000       0.133522         3.6333 
  62   0.0000       0.141306         3.8451 
  63   0.0000       0.151503         4.1226 
  64   0.0000       0.160957         4.3799 
  65   0.0000       0.165050         4.4912 
  66   0.0000       0.168087         4.5739 
  67   0.0000       0.196194         5.3387 
  68   0.0000       0.205938         5.6039 
  69   0.0000       0.210474         5.7273 
  70   0.0000       0.219408         5.9704 
  71   0.0000       0.234716         6.3870 
  72   0.0000       0.250506         6.8166 
  73   0.0000       0.254860         6.9351 
  74   0.0000       0.293425         7.9845 
  75   0.0000       0.318453         8.6655 
  76   0.0000       0.320195         8.7130 
  77   0.0000       0.333770         9.0823 
  78   0.0000       0.356462         9.6998 
  79   0.0000       0.374008        10.1773 
  80   0.0000       0.378958        10.3120 
  81   0.0000       0.381412        10.3787 
  82   0.0000       0.400567        10.9000 
  83   0.0000       0.417475        11.3601 
  84   0.0000       0.431947        11.7539 
  85   0.0000       0.439687        11.9645 
  86   0.0000       0.476675        12.9710 
  87   0.0000       0.487711        13.2713 
  88   0.0000       0.498758        13.5719 
  89   0.0000       0.502498        13.6737 
  90   0.0000       0.527345        14.3498 
  91   0.0000       0.540628        14.7112 
  92   0.0000       0.552443        15.0327 
  93   0.0000       0.555216        15.1082 
  94   0.0000       0.561050        15.2670 
  95   0.0000       0.564032        15.3481 
  96   0.0000       0.573603        15.6085 
  97   0.0000       0.591380        16.0923 
  98   0.0000       0.600379        16.3372 
  99   0.0000       0.611693        16.6450 
 100   0.0000       0.621435        16.9101 
 101   0.0000       0.627462        17.0741 
 102   0.0000       0.641817        17.4647 
 103   0.0000       0.654980        17.8229 
 104   0.0000       0.657533        17.8924 
 105   0.0000       0.681591        18.5470 
 106   0.0000       0.691759        18.8237 
 107   0.0000       0.701959        19.1013 
 108   0.0000       0.713794        19.4233 
 109   0.0000       0.733954        19.9719 
 110   0.0000       0.737507        20.0686 
 111   0.0000       0.741764        20.1844 
 112   0.0000       0.751064        20.4375 
 113   0.0000       0.760053        20.6821 
 114   0.0000       0.778605        21.1869 
 115   0.0000       0.787683        21.4340 
 116   0.0000       0.793501        21.5923 
 117   0.0000       0.799454        21.7543 
 118   0.0000       0.820685        22.3320 
 119   0.0000       0.831265        22.6199 
 120   0.0000       0.836510        22.7626 
 121   0.0000       0.846379        23.0311 
 122   0.0000       0.863956        23.5094 
 123   0.0000       0.879188        23.9239 
 124   0.0000       0.887214        24.1423 
 125   0.0000       0.897208        24.4143 
 126   0.0000       0.913819        24.8663 
 127   0.0000       0.926343        25.2071 
 128   0.0000       0.946184        25.7470 
 129   0.0000       0.949923        25.8487 
 130   0.0000       0.970378        26.4053 
 131   0.0000       0.980092        26.6697 
 132   0.0000       1.042013        28.3546 
 133   0.0000       1.054673        28.6991 
 134   0.0000       1.081424        29.4270 
 135   0.0000       1.089608        29.6498 
 136   0.0000       1.103549        30.0291 
 137   0.0000       1.123095        30.5610 
 138   0.0000       1.152921        31.3726 
 139   0.0000       1.176915        32.0255 
 140   0.0000       1.193577        32.4789 
 141   0.0000       1.207739        32.8642 
 142   0.0000       1.217405        33.1273 
 143   0.0000       1.229563        33.4581 
 144   0.0000       1.247315        33.9412 
 145   0.0000       1.261944        34.3392 
 146   0.0000       1.265212        34.4282 
 147   0.0000       1.275885        34.7186 
 148   0.0000       1.285680        34.9851 
 149   0.0000       1.313009        35.7288 
 150   0.0000       1.315361        35.7928 
 151   0.0000       1.328553        36.1518 
 152   0.0000       1.329434        36.1757 
 153   0.0000       1.348123        36.6843 
 154   0.0000       1.360396        37.0183 
 155   0.0000       1.362711        37.0813 
 156   0.0000       1.382786        37.6275 
 157   0.0000       1.388797        37.7911 
 158   0.0000       1.396388        37.9976 
 159   0.0000       1.418631        38.6029 
 160   0.0000       1.425711        38.7956 
 161   0.0000       1.482855        40.3505 
 162   0.0000       1.522315        41.4243 
 163   0.0000       1.539089        41.8808 
 164   0.0000       1.576365        42.8951 
 165   0.0000       1.588101        43.2144 
 166   0.0000       1.599619        43.5279 
 167   0.0000       1.640115        44.6298 
 168   0.0000       1.650963        44.9250 
 169   0.0000       1.713044        46.6143 
 170   0.0000       1.738269        47.3007 
 171   0.0000       1.751627        47.6642 
 172   0.0000       1.763689        47.9924 
 173   0.0000       1.776351        48.3370 
 174   0.0000       1.802011        49.0352 
 175   0.0000       1.804502        49.1030 
 176   0.0000       1.808050        49.1996 
 177   0.0000       1.835367        49.9429 
 178   0.0000       1.838740        50.0347 
 179   0.0000       1.841303        50.1044 
 180   0.0000       1.876220        51.0546 
 181   0.0000       1.881823        51.2070 
 182   0.0000       1.892813        51.5061 
 183   0.0000       1.911518        52.0151 
 184   0.0000       1.931265        52.5524 
 185   0.0000       1.940536        52.8047 
 186   0.0000       1.963028        53.4167 
 187   0.0000       1.992574        54.2207 
 188   0.0000       2.004796        54.5533 
 189   0.0000       2.022657        55.0393 
 190   0.0000       2.031039        55.2674 
 191   0.0000       2.037362        55.4394 
 192   0.0000       2.060109        56.0584 
 193   0.0000       2.101692        57.1899 
 194   0.0000       2.110533        57.4305 
 195   0.0000       2.137666        58.1689 
 196   0.0000       2.188169        59.5431 
 197   0.0000       2.208096        60.0854 
 198   0.0000       2.214535        60.2606 
 199   0.0000       2.233014        60.7634 
 200   0.0000       2.271253        61.8039 
 201   0.0000       2.275879        61.9298 
 202   0.0000       2.281803        62.0910 
 203   0.0000       2.299912        62.5838 
 204   0.0000       2.314266        62.9744 
 205   0.0000       2.322390        63.1955 
 206   0.0000       2.331702        63.4488 
 207   0.0000       2.339941        63.6730 
 208   0.0000       2.377075        64.6835 
 209   0.0000       2.397371        65.2358 
 210   0.0000       2.417916        65.7949 
 211   0.0000       2.448535        66.6280 
 212   0.0000       2.510346        68.3100 
 213   0.0000       2.533444        68.9385 
 214   0.0000       2.574836        70.0648 
 215   0.0000       2.623555        71.3906 
 216   0.0000       2.631459        71.6056 
 217   0.0000       2.679151        72.9034 
 218   0.0000       2.689534        73.1859 
 219   0.0000       2.703642        73.5698 
 220   0.0000       2.706409        73.6451 
 221   0.0000       2.717966        73.9596 
 222   0.0000       2.738939        74.5303 
 223   0.0000       2.747161        74.7541 
 224   0.0000       2.749443        74.8161 
 225   0.0000       2.775471        75.5244 
 226   0.0000       2.787331        75.8471 
 227   0.0000       2.823007        76.8179 
 228   0.0000       2.849792        77.5468 
 229   0.0000       2.861149        77.8558 
 230   0.0000       2.894789        78.7712 
 231   0.0000       2.911005        79.2125 
 232   0.0000       2.941148        80.0327 
 233   0.0000       2.956179        80.4417 
 234   0.0000       3.003470        81.7286 
 235   0.0000       3.011900        81.9580 
 236   0.0000       3.044619        82.8483 
 237   0.0000       3.050217        83.0006 
 238   0.0000       3.070121        83.5422 
 239   0.0000       3.072017        83.5938 
 240   0.0000       3.119902        84.8968 
 241   0.0000       3.122313        84.9625 
 242   0.0000       3.146256        85.6140 
 243   0.0000       3.194296        86.9212 
 244   0.0000       3.208826        87.3166 
 245   0.0000       3.234319        88.0103 
 246   0.0000       3.382317        92.0375 
 247   0.0000       3.437711        93.5449 
 248   0.0000       3.504481        95.3618 
 249   0.0000       3.565041        97.0097 
 250   0.0000       3.655551        99.4726 
 251   0.0000       3.720884       101.2504 
 252   0.0000       3.768653       102.5503 
 253   0.0000       3.921258       106.7029 

                    ********************************
                    * MULLIKEN POPULATION ANALYSIS *
                    ********************************

-----------------------
MULLIKEN ATOMIC CHARGES
-----------------------
   0 C :    0.021592
   1 C :   -0.033360
   2 C :    0.017772
   3 C :    0.003903
   4 C :    0.001255
   5 C :   -0.000090
   6 C :   -0.163255
   7 C :    0.070951
   8 C :    0.116832
   9 C :   -0.055407
  10 H :    0.019438
  11 O :   -0.295864
  12 H :    0.209854
  13 S :    0.950704
  14 O :   -0.465888
  15 O :   -0.401970
  16 O :   -0.325913
  17 H :    0.205374
  18 H :    0.049495
  19 H :    0.030258
  20 H :    0.015543
  21 H :    0.005137
  22 H :    0.023639
Sum of atomic charges:    0.0000000

--------------------------------
MULLIKEN REDUCED ORBITAL CHARGES
--------------------------------
  0 C s       :     3.138777  s :     3.138777
      pz      :     0.964330  p :     2.802531
      px      :     0.891877
      py      :     0.946324
      dz2     :     0.002557  d :     0.037100
      dxz     :     0.003547
      dyz     :     0.007118
      dx2y2   :     0.011324
      dxy     :     0.012554
  1 C s       :     3.206753  s :     3.206753
      pz      :     1.010419  p :     2.791592
      px      :     0.883232
      py      :     0.897941
      dz2     :     0.002600  d :     0.035015
      dxz     :     0.003317
      dyz     :     0.005955
      dx2y2   :     0.010278
      dxy     :     0.012865
  2 C s       :     3.061514  s :     3.061514
      pz      :     0.974926  p :     2.877209
      px      :     0.979250
      py      :     0.923032
      dz2     :     0.003246  d :     0.043506
      dxz     :     0.007254
      dyz     :     0.006101
      dx2y2   :     0.013391
      dxy     :     0.013513
  3 C s       :     3.206135  s :     3.206135
      pz      :     0.944419  p :     2.754100
      px      :     0.867256
      py      :     0.942425
      dz2     :     0.002544  d :     0.035862
      dxz     :     0.004596
      dyz     :     0.005240
      dx2y2   :     0.011569
      dxy     :     0.011912
  4 C s       :     3.143688  s :     3.143688
      pz      :     0.991383  p :     2.819431
      px      :     0.950766
      py      :     0.877282
      dz2     :     0.002541  d :     0.035626
      dxz     :     0.006268
      dyz     :     0.002786
      dx2y2   :     0.012860
      dxy     :     0.011171
  5 C s       :     3.233226  s :     3.233226
      pz      :     0.925575  p :     2.730302
      px      :     0.847281
      py      :     0.957446
      dz2     :     0.002661  d :     0.036562
      dxz     :     0.003483
      dyz     :     0.007437
      dx2y2   :     0.012462
      dxy     :     0.010519
  6 C s       :     2.967820  s :     2.967820
      pz      :     1.106576  p :     3.154379
      px      :     1.051867
      py      :     0.995936
      dz2     :     0.003568  d :     0.041056
      dxz     :     0.004217
      dyz     :     0.006946
      dx2y2   :     0.011360
      dxy     :     0.014965
  7 C s       :     3.079235  s :     3.079235
      pz      :     1.023847  p :     2.808989
      px      :     0.898147
      py      :     0.886995
      dz2     :     0.003324  d :     0.040824
      dxz     :     0.006358
      dyz     :     0.006903
      dx2y2   :     0.012644
      dxy     :     0.011595
  8 C s       :     3.008851  s :     3.008851
      pz      :     0.984490  p :     2.797208
      px      :     0.863859
      py      :     0.948859
      dz2     :     0.005367  d :     0.077109
      dxz     :     0.013842
      dyz     :     0.009836
      dx2y2   :     0.024059
      dxy     :     0.024005
  9 C s       :     3.231436  s :     3.231436
      pz      :     1.011806  p :     2.790719
      px      :     0.944024
      py      :     0.834889
      dz2     :     0.002646  d :     0.033253
      dxz     :     0.006626
      dyz     :     0.002719
      dx2y2   :     0.011714
      dxy     :     0.009548
 10 H s       :     0.956907  s :     0.956907
      pz      :     0.004635  p :     0.023655
      px      :     0.003307
      py      :     0.015713
 11 O s       :     3.689830  s :     3.689830
      pz      :     1.654101  p :     4.592578
      px      :     1.324615
      py      :     1.613862
      dz2     :     0.001528  d :     0.013456
      dxz     :     0.002338
      dyz     :     0.002422
      dx2y2   :     0.001968
      dxy     :     0.005200
 12 H s       :     0.708820  s :     0.708820
      pz      :     0.024946  p :     0.081326
      px      :     0.036910
      py      :     0.019470
 13 S s       :     5.262201  s :     5.262201
      pz      :     2.917062  p :     8.977701
      px      :     3.081719
      py      :     2.978920
      dz2     :     0.165685  d :     0.809394
      dxz     :     0.121001
      dyz     :     0.195558
      dx2y2   :     0.165524
      dxy     :     0.161626
 14 O s       :     3.833227  s :     3.833227
      pz      :     1.423942  p :     4.614411
      px      :     1.693640
      py      :     1.496828
      dz2     :     0.004986  d :     0.018251
      dxz     :     0.003334
      dyz     :     0.005880
      dx2y2   :     0.002196
      dxy     :     0.001855
 15 O s       :     3.817990  s :     3.817990
      pz      :     1.653107  p :     4.563783
      px      :     1.444885
      py      :     1.465790
      dz2     :     0.002152  d :     0.020198
      dxz     :     0.003439
      dyz     :     0.002506
      dx2y2   :     0.005876
      dxy     :     0.006225
 16 O s       :     3.723299  s :     3.723299
      pz      :     1.492148  p :     4.589149
      px      :     1.711324
      py      :     1.385676
      dz2     :     0.004782  d :     0.013466
      dxz     :     0.002267
      dyz     :     0.003663
      dx2y2   :     0.000436
      dxy     :     0.002317
 17 H s       :     0.723497  s :     0.723497
      pz      :     0.013392  p :     0.071129
      px      :     0.025627
      py      :     0.032110
 18 H s       :     0.925679  s :     0.925679
      pz      :     0.004224  p :     0.024827
      px      :     0.015137
      py      :     0.005466
 19 H s       :     0.946144  s :     0.946144
      pz      :     0.004566  p :     0.023598
      px      :     0.003313
      py      :     0.015719
 20 H s       :     0.961174  s :     0.961174
      pz      :     0.004381  p :     0.023283
      px      :     0.011946
      py      :     0.006956
 21 H s       :     0.971100  s :     0.971100
      pz      :     0.004981  p :     0.023763
      px      :     0.011371
      py      :     0.007412
 22 H s       :     0.953233  s :     0.953233
      pz      :     0.004505  p :     0.023128
      px      :     0.013008
      py      :     0.005614


                     *******************************
                     * LOEWDIN POPULATION ANALYSIS *
                     *******************************

----------------------
LOEWDIN ATOMIC CHARGES
----------------------
   0 C :   -0.012379
   1 C :   -0.032453
   2 C :   -0.010059
   3 C :    0.014003
   4 C :   -0.026619
   5 C :   -0.006949
   6 C :   -0.189543
   7 C :   -0.052529
   8 C :    0.047191
   9 C :   -0.042980
  10 H :    0.040067
  11 O :   -0.083135
  12 H :    0.032482
  13 S :    1.209248
  14 O :   -0.464870
  15 O :   -0.449702
  16 O :   -0.227444
  17 H :    0.067931
  18 H :    0.042030
  19 H :    0.038885
  20 H :    0.037554
  21 H :    0.032202
  22 H :    0.037070

-------------------------------
LOEWDIN REDUCED ORBITAL CHARGES
-------------------------------
  0 C s       :     2.848712  s :     2.848712
      pz      :     0.946965  p :     3.067894
      px      :     1.047725
      py      :     1.073205
      dz2     :     0.006197  d :     0.095773
      dxz     :     0.006594
      dyz     :     0.014818
      dx2y2   :     0.032518
      dxy     :     0.035647
  1 C s       :     2.847280  s :     2.847280
      pz      :     0.994117  p :     3.092704
      px      :     1.035611
      py      :     1.062975
      dz2     :     0.006294  d :     0.092469
      dxz     :     0.006508
      dyz     :     0.011756
      dx2y2   :     0.030495
      dxy     :     0.037417
  2 C s       :     2.833869  s :     2.833869
      pz      :     0.958611  p :     3.064300
      px      :     1.053438
      py      :     1.052251
      dz2     :     0.007548  d :     0.111890
      dxz     :     0.014762
      dyz     :     0.012052
      dx2y2   :     0.038590
      dxy     :     0.038939
  3 C s       :     2.852984  s :     2.852984
      pz      :     0.929002  p :     3.039954
      px      :     1.061609
      py      :     1.049343
      dz2     :     0.006166  d :     0.093059
      dxz     :     0.008415
      dyz     :     0.010656
      dx2y2   :     0.033366
      dxy     :     0.034457
  4 C s       :     2.848363  s :     2.848363
      pz      :     0.970939  p :     3.085107
      px      :     1.067381
      py      :     1.046787
      dz2     :     0.006284  d :     0.093149
      dxz     :     0.013174
      dyz     :     0.004501
      dx2y2   :     0.036615
      dxy     :     0.032575
  5 C s       :     2.854218  s :     2.854218
      pz      :     0.922206  p :     3.057217
      px      :     1.067224
      py      :     1.067787
      dz2     :     0.006484  d :     0.095514
      dxz     :     0.006377
      dyz     :     0.015507
      dx2y2   :     0.035454
      dxy     :     0.031693
  6 C s       :     2.896932  s :     2.896932
      pz      :     1.082113  p :     3.190066
      px      :     1.020629
      py      :     1.087324
      dz2     :     0.008107  d :     0.102545
      dxz     :     0.008608
      dyz     :     0.013425
      dx2y2   :     0.032752
      dxy     :     0.039653
  7 C s       :     2.837979  s :     2.837979
      pz      :     1.007158  p :     3.105550
      px      :     1.050612
      py      :     1.047780
      dz2     :     0.008087  d :     0.109000
      dxz     :     0.012931
      dyz     :     0.013670
      dx2y2   :     0.038320
      dxy     :     0.035993
  8 C s       :     2.833814  s :     2.833814
      pz      :     0.966903  p :     2.943122
      px      :     0.971679
      py      :     1.004541
      dz2     :     0.011544  d :     0.175872
      dxz     :     0.025736
      dyz     :     0.019149
      dx2y2   :     0.059978
      dxy     :     0.059465
  9 C s       :     2.854692  s :     2.854692
      pz      :     0.995477  p :     3.099345
      px      :     1.056221
      py      :     1.047647
      dz2     :     0.006606  d :     0.088942
      dxz     :     0.014025
      dyz     :     0.004488
      dx2y2   :     0.034554
      dxy     :     0.029270
 10 H s       :     0.889004  s :     0.889004
      pz      :     0.015347  p :     0.070929
      px      :     0.011184
      py      :     0.044397
 11 O s       :     3.411433  s :     3.411433
      pz      :     1.652226  p :     4.646654
      px      :     1.352026
      py      :     1.642402
      dz2     :     0.002472  d :     0.025048
      dxz     :     0.005537
      dyz     :     0.003157
      dx2y2   :     0.003838
      dxy     :     0.010043
 12 H s       :     0.731492  s :     0.731492
      pz      :     0.075679  p :     0.236027
      px      :     0.102145
      py      :     0.058203
 13 S s       :     5.011613  s :     5.011613
      pz      :     2.871645  p :     8.739268
      px      :     2.970923
      py      :     2.896700
      dz2     :     0.218751  d :     1.039871
      dxz     :     0.139277
      dyz     :     0.264333
      dx2y2   :     0.202586
      dxy     :     0.214924
 14 O s       :     3.649143  s :     3.649143
      pz      :     1.536074  p :     4.786182
      px      :     1.688722
      py      :     1.561386
      dz2     :     0.007222  d :     0.029545
      dxz     :     0.003831
      dyz     :     0.012316
      dx2y2   :     0.003466
      dxy     :     0.002709
 15 O s       :     3.653767  s :     3.653767
      pz      :     1.672845  p :     4.763842
      px      :     1.536090
      py      :     1.554907
      dz2     :     0.004593  d :     0.032092
      dxz     :     0.004012
      dyz     :     0.003089
      dx2y2   :     0.006832
      dxy     :     0.013566
 16 O s       :     3.498881  s :     3.498881
      pz      :     1.545569  p :     4.705064
      px      :     1.712893
      py      :     1.446602
      dz2     :     0.008180  d :     0.023499
      dxz     :     0.002596
      dyz     :     0.006676
      dx2y2   :     0.000859
      dxy     :     0.005188
 17 H s       :     0.735004  s :     0.735004
      pz      :     0.039206  p :     0.197066
      px      :     0.070280
      py      :     0.087580
 18 H s       :     0.882619  s :     0.882619
      pz      :     0.013517  p :     0.075351
      px      :     0.044088
      py      :     0.017747
 19 H s       :     0.891356  s :     0.891356
      pz      :     0.014596  p :     0.069759
      px      :     0.011564
      py      :     0.043599
 20 H s       :     0.893355  s :     0.893355
      pz      :     0.013784  p :     0.069091
      px      :     0.034311
      py      :     0.020996
 21 H s       :     0.897782  s :     0.897782
      pz      :     0.015725  p :     0.070016
      px      :     0.032613
      py      :     0.021678
 22 H s       :     0.894142  s :     0.894142
      pz      :     0.014083  p :     0.068789
      px      :     0.037112
      py      :     0.017593


                      *****************************
                      * MAYER POPULATION ANALYSIS *
                      *****************************

  NA   - Mulliken gross atomic population
  ZA   - Total nuclear charge
  QA   - Mulliken gross atomic charge
  VA   - Mayer's total valence
  BVA  - Mayer's bonded valence
  FA   - Mayer's free valence

  ATOM       NA         ZA         QA         VA         BVA        FA
  0 C      5.9784     6.0000     0.0216     3.8102     3.8102     0.0000
  1 C      6.0334     6.0000    -0.0334     3.8237     3.8237    -0.0000
  2 C      5.9822     6.0000     0.0178     3.8857     3.8857    -0.0000
  3 C      5.9961     6.0000     0.0039     3.8276     3.8276     0.0000
  4 C      5.9987     6.0000     0.0013     3.8347     3.8347    -0.0000
  5 C      6.0001     6.0000    -0.0001     3.9533     3.9533     0.0000
  6 C      6.1633     6.0000    -0.1633     3.8961     3.8961    -0.0000
  7 C      5.9290     6.0000     0.0710     3.8486     3.8486     0.0000
  8 C      5.8832     6.0000     0.1168     3.9955     3.9955     0.0000
  9 C      6.0554     6.0000    -0.0554     3.8886     3.8886     0.0000
 10 H      0.9806     1.0000     0.0194     1.0014     1.0014    -0.0000
 11 O      8.2959     8.0000    -0.2959     2.1996     2.1996    -0.0000
 12 H      0.7901     1.0000     0.2099     1.0713     1.0713    -0.0000
 13 S     15.0493    16.0000     0.9507     5.4606     5.4606    -0.0000
 14 O      8.4659     8.0000    -0.4659     1.9347     1.9347     0.0000
 15 O      8.4020     8.0000    -0.4020     2.0612     2.0612    -0.0000
 16 O      8.3259     8.0000    -0.3259     2.0621     2.0621     0.0000
 17 H      0.7946     1.0000     0.2054     1.0557     1.0557    -0.0000
 18 H      0.9505     1.0000     0.0495     1.0198     1.0198     0.0000
 19 H      0.9697     1.0000     0.0303     0.9864     0.9864    -0.0000
 20 H      0.9845     1.0000     0.0155     0.9915     0.9915     0.0000
 21 H      0.9949     1.0000     0.0051     0.9922     0.9922     0.0000
 22 H      0.9764     1.0000     0.0236     0.9849     0.9849     0.0000

  Mayer bond orders larger than 0.100000
B(  0-C ,  1-C ) :   1.4842 B(  0-C ,  9-C ) :   1.2612 B(  0-C , 22-H ) :   0.9917 
B(  1-C ,  2-C ) :   1.2476 B(  1-C , 21-H ) :   1.0018 B(  2-C ,  3-C ) :   1.2394 
B(  2-C ,  7-C ) :   1.2825 B(  3-C ,  4-C ) :   1.5084 B(  3-C , 20-H ) :   0.9977 
B(  4-C ,  5-C ) :   1.2494 B(  4-C , 19-H ) :   0.9937 B(  5-C ,  6-C ) :   1.5502 
B(  5-C , 18-H ) :   0.9795 B(  6-C ,  7-C ) :   1.2458 B(  6-C , 13-S ) :   0.8582 
B(  7-C ,  8-C ) :   1.1754 B(  8-C ,  9-C ) :   1.5126 B(  8-C , 11-O ) :   1.1562 
B(  9-C , 10-H ) :   0.9902 B( 11-O , 12-H ) :   0.8667 B( 12-H , 14-O ) :   0.1531 
B( 13-S , 14-O ) :   1.6010 B( 13-S , 15-O ) :   1.8456 B( 13-S , 16-O ) :   1.0096 
B( 16-O , 17-H ) :   0.9077 

-------
TIMINGS
-------

Total SCF time: 0 days 0 hours 4 min 15 sec 

Total time                  ....     255.253 sec
Sum of individual times     ....     255.035 sec  ( 99.9%)

Fock matrix formation       ....     252.338 sec  ( 98.9%)
  XC integration            ....       7.698 sec  (  3.1% of F)
    Basis function eval.    ....       2.353 sec  ( 30.6% of XC)
    Density eval.           ....       1.482 sec  ( 19.3% of XC)
    XC-Functional eval.     ....       1.647 sec  ( 21.4% of XC)
    XC-Potential eval.      ....       2.007 sec  ( 26.1% of XC)
Diagonalization             ....       0.052 sec  (  0.0%)
Density matrix formation    ....       0.018 sec  (  0.0%)
Population analysis         ....       0.007 sec  (  0.0%)
Initial guess               ....       0.710 sec  (  0.3%)
Orbital Transformation      ....       0.000 sec  (  0.0%)
Orbital Orthonormalization  ....       0.000 sec  (  0.0%)
DIIS solution               ....       0.019 sec  (  0.0%)
SOSCF solution              ....       0.041 sec  (  0.0%)
Grid generation             ....       1.850 sec  (  0.7%)


-------------------------------------------------------------------------------
                          DFT DISPERSION CORRECTION                            
                                                                               
                              DFTD3 V3.1  Rev 1                                
                              USING zero damping                               
-------------------------------------------------------------------------------
The omegaB97X-D3 functional is recognized. Fit by Chai et al.
Active option DFTDOPT                   ...         3   

molecular C6(AA) [au] = 7818.266112 


            DFT-D V3
 parameters
 s6 scaling factor         :     1.0000 
 rs6 scaling factor        :     1.2810 
 s8 scaling factor         :     1.0000 
 rs8 scaling factor        :     1.0940 
 Damping factor alpha6     :    14.0000 
 Damping factor alpha8     :    16.0000 
 ad hoc parameters k1-k3   :    16.0000     1.3333    -4.0000 

 Edisp/kcal,au: -6.277829413305  -0.010004356911 
 E6   /kcal   :  -2.687965457 
 E8   /kcal   :  -3.589863956 
 % E8         :  57.183203302 

-------------------------   ----------------
Dispersion correction           -0.010004357
-------------------------   ----------------


-------------------------   --------------------
FINAL SINGLE POINT ENERGY     -1084.084300402797
-------------------------   --------------------

------------------------------------------------------------------------------
                         ORCA SCF GRADIENT CALCULATION
------------------------------------------------------------------------------

Gradient of the Kohn-Sham DFT energy:
Kohn-Sham wavefunction type      ... RKS
Hartree-Fock exchange scaling    ...    0.196
Number of operators              ...    1
Number of atoms                  ...   23
Basis set dimensions             ...  254
Integral neglect threshold       ... 2.5e-11
Integral primitive cutoff        ... 2.5e-12

Nuclear repulsion gradient       ... done
One Electron Gradient            ... done
Pre-screening matrix             ... done
Starting the two electron gradient:
Two electron gradient done
Exchange-correlation gradient    ... done
Dispersion correction            ... done

------------------
CARTESIAN GRADIENT
------------------

   1   C   :    0.000840576    0.003862295   -0.000164761
   2   C   :   -0.000413216   -0.001955986    0.000107675
   3   C   :    0.003976976   -0.005626548   -0.000499784
   4   C   :    0.004979512    0.002817410   -0.000093912
   5   C   :   -0.004484062   -0.002888094   -0.000431515
   6   C   :    0.000855037   -0.000329276   -0.000160282
   7   C   :    0.015538682   -0.001122159    0.000522081
   8   C   :   -0.009417305   -0.003231596   -0.000565138
   9   C   :   -0.001293964   -0.010458775   -0.000035558
  10   C   :    0.006578106    0.002115716   -0.000619802
  11   H   :    0.000346501   -0.009541061   -0.000296919
  12   O   :    0.000668426    0.002127257    0.003714432
  13   H   :   -0.005322030   -0.004673028   -0.004896797
  14   S   :   -0.013463667   -0.000242496    0.010158193
  15   O   :   -0.002857918   -0.016064006   -0.017289556
  16   O   :    0.017419145    0.019342768    0.007207737
  17   O   :    0.008138338    0.007906974    0.006206663
  18   H   :   -0.006686343   -0.004725693   -0.004460998
  19   H   :    0.008408135    0.006075970    0.000315220
  20   H   :    0.000457372    0.009446939    0.000064743
  21   H   :   -0.007648022    0.005318704    0.000220715
  22   H   :   -0.007856053    0.005458591    0.000360845
  23   H   :   -0.008764228   -0.003613905    0.000636720

Difference to translation invariance:
           :   -0.0000000000    0.0000000000   -0.0000000000

Norm of the cartesian gradient     ...    0.0558097058
RMS gradient                       ...    0.0067186990
MAX gradient                       ...    0.0193427677

-------
TIMINGS
-------

Total SCF gradient time            ...       89.424 sec

One electron gradient       ....       0.262 sec  (  0.3%)
Prescreening matrices       ....       0.150 sec  (  0.2%)
Two electron gradient       ....      82.922 sec  ( 92.7%)
XC gradient                 ....       5.947 sec  (  6.7%)
------------------------------------------------------------------------------
                         ORCA GEOMETRY RELAXATION STEP
------------------------------------------------------------------------------

Reading the OPT-File                    .... done
Getting information on internals        .... done
Copying old internal coords+grads       .... done
Making the new internal coordinates     .... (new redundants).... done
Validating the new internal coordinates .... (new redundants).... done
Calculating the B-matrix                .... done
Calculating the G,G- and P matrices     .... done
Transforming gradient to internals      .... done
Projecting the internal gradient        .... done
Number of atoms                         ....  23
Number of internal coordinates          .... 117
Current Energy                          .... -1084.084300403 Eh
Current gradient norm                   ....     0.055809706 Eh/bohr
Maximum allowed component of the step   ....  0.300
Current trust radius                    ....  0.300
Evaluating the initial hessian          ....  (Almloef) done
Projecting the Hessian                  .... done
Forming the augmented Hessian           .... done
Diagonalizing the augmented Hessian     .... done
Last element of RFO vector              ....  0.944372331
Lowest eigenvalues of augmented Hessian:
 -0.010702270  0.004273597  0.011284355  0.018201115  0.021743922
Length of the computed step             ....  0.348250615
Warning: the length of the step is outside the trust region - taking restricted step instead
The input lambda is                     ....    -0.010702
   iter:   1  x=   -0.015672  g=    6.293849 f(x)=     0.031278
   iter:   2  x=   -0.017068  g=    4.164383 f(x)=     0.005815
   iter:   3  x=   -0.017147  g=    3.753074 f(x)=     0.000294
   iter:   4  x=   -0.017147  g=    3.731711 f(x)=     0.000001
   iter:   5  x=   -0.017147  g=    3.731650 f(x)=     0.000000
   iter:   6  x=   -0.017147  g=    3.731650 f(x)=     0.000000
The output lambda is                    ....    -0.017147 (6 iterations)
The final length of the internal step   ....  0.300000000
Converting the step to cartesian space:
 Initial RMS(Int)=    0.0277350098
Transforming coordinates:
 Iter   0:  RMS(Cart)=    0.0974293311 RMS(Int)=    0.8190023341
 Iter   1:  RMS(Cart)=    0.0044768516 RMS(Int)=    0.0030286307
 Iter   2:  RMS(Cart)=    0.0007002399 RMS(Int)=    0.0004392098
 Iter   3:  RMS(Cart)=    0.0001234679 RMS(Int)=    0.0000951160
 Iter   4:  RMS(Cart)=    0.0000224460 RMS(Int)=    0.0000157430
 Iter   5:  RMS(Cart)=    0.0000041568 RMS(Int)=    0.0000031538
 Iter   6:  RMS(Cart)=    0.0000007581 RMS(Int)=    0.0000005541
 Iter   7:  RMS(Cart)=    0.0000001416 RMS(Int)=    0.0000001043
 Iter   8:  RMS(Cart)=    0.0000000258 RMS(Int)=    0.0000000195
done
Storing new coordinates                 .... done

                                .--------------------.
          ----------------------|Geometry convergence|-------------------------
          Item                value                   Tolerance       Converged
          ---------------------------------------------------------------------
          RMS gradient        0.0060138284            0.0001000000      NO
          MAX gradient        0.0266656294            0.0003000000      NO
          RMS step            0.0277350098            0.0020000000      NO
          MAX step            0.1658967940            0.0040000000      NO
          ........................................................
          Max(Bonds)      0.0243      Max(Angles)    1.51
          Max(Dihed)        9.51      Max(Improp)    0.00
          ---------------------------------------------------------------------

The optimization has not yet converged - more geometry cycles are needed


    ---------------------------------------------------------------------------
                         Redundant Internal Coordinates
                            (Angstroem and degrees)

        Definition                    Value    dE/dq     Step     New-Value
    ----------------------------------------------------------------------------
     1. B(C   1,C   0)                1.3663 -0.003928  0.0029    1.3692   
     2. B(C   2,C   1)                1.4087 -0.008069  0.0071    1.4158   
     3. B(C   3,C   2)                1.4118 -0.010034  0.0086    1.4205   
     4. B(C   4,C   3)                1.3658 -0.002162  0.0013    1.3671   
     5. B(C   5,C   4)                1.4008 -0.007025  0.0059    1.4068   
     6. B(C   6,C   5)                1.3657 -0.010469  0.0082    1.3739   
     7. B(C   7,C   2)                1.4302 -0.007333  0.0071    1.4373   
     8. B(C   7,C   6)                1.4138 -0.026666  0.0243    1.4381   
     9. B(C   8,C   7)                1.4248 -0.016963  0.0159    1.4407   
    10. B(C   9,C   8)                1.3782 -0.001727  0.0014    1.3795   
    11. B(C   9,C   0)                1.3953 -0.008452  0.0070    1.4024   
    12. B(H  10,C   9)                1.0786 -0.009496  0.0128    1.0913   
    13. B(O  11,C   8)                1.3602  0.001883 -0.0016    1.3587   
    14. B(H  12,O  11)                0.9881  0.002744 -0.0030    0.9851   
    15. B(S  13,C   6)                1.7847  0.000524 -0.0007    1.7841   
    16. B(O  14,S  13)                1.4470 -0.023388  0.0100    1.4570   
    17. B(O  15,S  13)                1.4200 -0.026441  0.0102    1.4302   
    18. B(O  16,S  13)                1.5985  0.000194 -0.0001    1.5984   
    19. B(H  17,O  16)                0.9694 -0.008029  0.0082    0.9776   
    20. B(H  18,C   5)                1.0775 -0.010193  0.0137    1.0912   
    21. B(H  19,C   4)                1.0786 -0.009456  0.0127    1.0913   
    22. B(H  20,C   3)                1.0801 -0.009313  0.0126    1.0927   
    23. B(H  21,C   1)                1.0793 -0.009567  0.0129    1.0922   
    24. B(H  22,C   0)                1.0791 -0.009482  0.0128    1.0919   
    25. A(C   1,C   0,C   9)          119.94  0.000471   -0.09    119.85   
    26. A(C   9,C   0,H  22)          119.32 -0.000835    0.13    119.46   
    27. A(C   1,C   0,H  22)          120.74  0.000370   -0.05    120.68   
    28. A(C   0,C   1,C   2)          120.54 -0.000126   -0.00    120.53   
    29. A(C   0,C   1,H  21)          120.87  0.000216   -0.02    120.85   
    30. A(C   2,C   1,H  21)          118.59 -0.000088    0.02    118.61   
    31. A(C   1,C   2,C   7)          120.21 -0.003147    0.43    120.64   
    32. A(C   1,C   2,C   3)          120.08  0.006100   -0.78    119.30   
    33. A(C   3,C   2,C   7)          119.70 -0.002950    0.35    120.05   
    34. A(C   2,C   3,H  20)          118.01  0.000916   -0.06    117.94   
    35. A(C   2,C   3,C   4)          121.51 -0.002656    0.25    121.76   
    36. A(C   4,C   3,H  20)          120.48  0.001742   -0.19    120.29   
    37. A(C   3,C   4,C   5)          119.21 -0.000773    0.02    119.23   
    38. A(C   5,C   4,H  19)          119.74  0.000204    0.01    119.76   
    39. A(C   3,C   4,H  19)          121.04  0.000576   -0.05    121.00   
    40. A(C   6,C   5,H  18)          118.08 -0.001610    0.24    118.32   
    41. A(C   4,C   5,H  18)          121.31  0.002348   -0.37    120.94   
    42. A(C   4,C   5,C   6)          120.60 -0.000736    0.13    120.73   
    43. A(C   7,C   6,S  13)          123.76 -0.009613    1.20    124.96   
    44. A(C   5,C   6,S  13)          113.87  0.008640   -1.18    112.70   
    45. A(C   5,C   6,C   7)          122.36  0.000990   -0.05    122.30   
    46. A(C   6,C   7,C   8)          125.80 -0.011858    1.51    127.31   
    47. A(C   2,C   7,C   8)          117.61  0.005715   -0.78    116.83   
    48. A(C   2,C   7,C   6)          116.57  0.006164   -0.76    115.81   
[...]
      dxy     :     0.012490
  2 C s       :     3.071725  s :     3.071725
      pz      :     0.976170  p :     2.887299
      px      :     0.977991
      py      :     0.933138
      dz2     :     0.003196  d :     0.042451
      dxz     :     0.006911
      dyz     :     0.005975
      dx2y2   :     0.013161
      dxy     :     0.013208
  3 C s       :     3.203668  s :     3.203668
      pz      :     0.946468  p :     2.759367
      px      :     0.875450
      py      :     0.937449
      dz2     :     0.002534  d :     0.035083
      dxz     :     0.004544
      dyz     :     0.005071
      dx2y2   :     0.011392
      dxy     :     0.011543
  4 C s       :     3.148065  s :     3.148065
      pz      :     0.989430  p :     2.826232
      px      :     0.950395
      py      :     0.886408
      dz2     :     0.002527  d :     0.034914
      dxz     :     0.006164
      dyz     :     0.002720
      dx2y2   :     0.012515
      dxy     :     0.010987
  5 C s       :     3.234344  s :     3.234344
      pz      :     0.920880  p :     2.733761
      px      :     0.857377
      py      :     0.955504
      dz2     :     0.002641  d :     0.035596
      dxz     :     0.003391
      dyz     :     0.007213
      dx2y2   :     0.011925
      dxy     :     0.010427
  6 C s       :     2.983774  s :     2.983774
      pz      :     1.101680  p :     3.143995
      px      :     1.044605
      py      :     0.997711
      dz2     :     0.003510  d :     0.039640
      dxz     :     0.003952
      dyz     :     0.006665
      dx2y2   :     0.011060
      dxy     :     0.014454
  7 C s       :     3.079256  s :     3.079256
      pz      :     1.015187  p :     2.803706
      px      :     0.896910
      py      :     0.891608
      dz2     :     0.003264  d :     0.039690
      dxz     :     0.006134
      dyz     :     0.006713
      dx2y2   :     0.012300
      dxy     :     0.011280
  8 C s       :     3.009677  s :     3.009677
      pz      :     1.004400  p :     2.791128
      px      :     0.841313
      py      :     0.945415
      dz2     :     0.005191  d :     0.075473
      dxz     :     0.013024
      dyz     :     0.008846
      dx2y2   :     0.024377
      dxy     :     0.024034
  9 C s       :     3.234887  s :     3.234887
      pz      :     0.999213  p :     2.785832
      px      :     0.945512
      py      :     0.841108
      dz2     :     0.002605  d :     0.033002
      dxz     :     0.006796
      dyz     :     0.002661
      dx2y2   :     0.011390
      dxy     :     0.009549
 10 H s       :     0.947837  s :     0.947837
      pz      :     0.004427  p :     0.023089
      px      :     0.003120
      py      :     0.015541
 11 O s       :     3.700947  s :     3.700947
      pz      :     1.559069  p :     4.596243
      px      :     1.377350
      py      :     1.659825
      dz2     :     0.002078  d :     0.013337
      dxz     :     0.002862
      dyz     :     0.002210
      dx2y2   :     0.001838
      dxy     :     0.004349
 12 H s       :     0.707731  s :     0.707731
      pz      :     0.028621  p :     0.075069
      px      :     0.029367
      py      :     0.017081
 13 S s       :     5.265264  s :     5.265264
      pz      :     2.922182  p :     8.975561
      px      :     3.075991
      py      :     2.977388
      dz2     :     0.163751  d :     0.787588
      dxz     :     0.118417
      dyz     :     0.191768
      dx2y2   :     0.157751
      dxy     :     0.155902
 14 O s       :     3.840212  s :     3.840212
      pz      :     1.412377  p :     4.627183
      px      :     1.706451
      py      :     1.508354
      dz2     :     0.004916  d :     0.017441
      dxz     :     0.003150
      dyz     :     0.005786
      dx2y2   :     0.001944
      dxy     :     0.001645
 15 O s       :     3.829951  s :     3.829951
      pz      :     1.663627  p :     4.571824
      px      :     1.447536
      py      :     1.460661
      dz2     :     0.002112  d :     0.019404
      dxz     :     0.003232
      dyz     :     0.002385
      dx2y2   :     0.005558
      dxy     :     0.006116
 16 O s       :     3.736691  s :     3.736691
      pz      :     1.489886  p :     4.579254
      px      :     1.656821
      py      :     1.432547
      dz2     :     0.004682  d :     0.013993
      dxz     :     0.002401
      dyz     :     0.003925
      dx2y2   :     0.000494
      dxy     :     0.002491
 17 H s       :     0.718609  s :     0.718609
      pz      :     0.013634  p :     0.072170
      px      :     0.029157
      py      :     0.029379
 18 H s       :     0.915459  s :     0.915459
      pz      :     0.003977  p :     0.024096
      px      :     0.014736
      py      :     0.005382
 19 H s       :     0.938559  s :     0.938559
      pz      :     0.004378  p :     0.022990
      px      :     0.003113
      py      :     0.015499
 20 H s       :     0.953329  s :     0.953329
      pz      :     0.004234  p :     0.022708
      px      :     0.011750
      py      :     0.006724
 21 H s       :     0.960705  s :     0.960705
      pz      :     0.004685  p :     0.023115
      px      :     0.011152
      py      :     0.007278
 22 H s       :     0.944263  s :     0.944263
      pz      :     0.004330  p :     0.022533
      px      :     0.012858
      py      :     0.005345


                     *******************************
                     * LOEWDIN POPULATION ANALYSIS *
                     *******************************

----------------------
LOEWDIN ATOMIC CHARGES
----------------------
   0 C :   -0.016701
   1 C :   -0.027405
   2 C :   -0.012177
   3 C :    0.009609
   4 C :   -0.028862
   5 C :   -0.006168
   6 C :   -0.191241
   7 C :   -0.045931
   8 C :    0.042549
   9 C :   -0.039480
  10 H :    0.044324
  11 O :   -0.080544
  12 H :    0.059575
  13 S :    1.220481
  14 O :   -0.495428
  15 O :   -0.465515
  16 O :   -0.234512
  17 H :    0.061645
  18 H :    0.047019
  19 H :    0.041951
  20 H :    0.040286
  21 H :    0.036220
  22 H :    0.040303

-------------------------------
LOEWDIN REDUCED ORBITAL CHARGES
-------------------------------
  0 C s       :     2.856147  s :     2.856147
      pz      :     0.951258  p :     3.068037
      px      :     1.044657
      py      :     1.072121
      dz2     :     0.006071  d :     0.092517
      dxz     :     0.006086
      dyz     :     0.013934
      dx2y2   :     0.031724
      dxy     :     0.034702
  1 C s       :     2.855186  s :     2.855186
      pz      :     0.984522  p :     3.082064
      px      :     1.034151
      py      :     1.063391
      dz2     :     0.006130  d :     0.090155
      dxz     :     0.006271
      dyz     :     0.011545
      dx2y2   :     0.029909
      dxy     :     0.036300
  2 C s       :     2.839337  s :     2.839337
      pz      :     0.959844  p :     3.064008
      px      :     1.053446
      py      :     1.050718
      dz2     :     0.007388  d :     0.108832
      dxz     :     0.013932
      dyz     :     0.011690
      dx2y2   :     0.037957
      dxy     :     0.037864
  3 C s       :     2.859790  s :     2.859790
      pz      :     0.931776  p :     3.039888
      px      :     1.062132
      py      :     1.045980
      dz2     :     0.006041  d :     0.090713
      dxz     :     0.008245
      dyz     :     0.010253
      dx2y2   :     0.032843
      dxy     :     0.033330
  4 C s       :     2.855352  s :     2.855352
      pz      :     0.969908  p :     3.082544
      px      :     1.066970
      py      :     1.045667
      dz2     :     0.006162  d :     0.090966
      dxz     :     0.012856
      dyz     :     0.004350
      dx2y2   :     0.035651
      dxy     :     0.031947
  5 C s       :     2.863005  s :     2.863005
      pz      :     0.918195  p :     3.050740
      px      :     1.065679
      py      :     1.066866
      dz2     :     0.006307  d :     0.092423
      dxz     :     0.006151
      dyz     :     0.014847
      dx2y2   :     0.033856
      dxy     :     0.031263
  6 C s       :     2.905970  s :     2.905970
      pz      :     1.078988  p :     3.186889
      px      :     1.020588
      py      :     1.087312
      dz2     :     0.007909  d :     0.098382
      dxz     :     0.007937
      dyz     :     0.012702
      dx2y2   :     0.031676
      dxy     :     0.038158
  7 C s       :     2.846180  s :     2.846180
      pz      :     1.001585  p :     3.094773
      px      :     1.047140
      py      :     1.046048
      dz2     :     0.007837  d :     0.104977
      dxz     :     0.012277
      dyz     :     0.013227
      dx2y2   :     0.036942
      dxy     :     0.034694
  8 C s       :     2.837339  s :     2.837339
      pz      :     0.981267  p :     2.947894
      px      :     0.967184
      py      :     0.999442
      dz2     :     0.011137  d :     0.172218
      dxz     :     0.023954
      dyz     :     0.016866
      dx2y2   :     0.061355
      dxy     :     0.058907
  9 C s       :     2.861994  s :     2.861994
      pz      :     0.985466  p :     3.089904
      px      :     1.057998
      py      :     1.046441
      dz2     :     0.006466  d :     0.087581
      dxz     :     0.014227
      dyz     :     0.004310
      dx2y2   :     0.033523
      dxy     :     0.029054
 10 H s       :     0.886990  s :     0.886990
      pz      :     0.014318  p :     0.068685
      px      :     0.010367
      py      :     0.044000
 11 O s       :     3.413170  s :     3.413170
      pz      :     1.576536  p :     4.642498
      px      :     1.393539
      py      :     1.672423
      dz2     :     0.003537  d :     0.024875
      dxz     :     0.006810
      dyz     :     0.002792
      dx2y2   :     0.003518
      dxy     :     0.008218
 12 H s       :     0.728362  s :     0.728362
      pz      :     0.085595  p :     0.212063
      px      :     0.076495
      py      :     0.049973
 13 S s       :     5.023276  s :     5.023276
      pz      :     2.876255  p :     8.743306
      px      :     2.967714
      py      :     2.899337
      dz2     :     0.216495  d :     1.012937
      dxz     :     0.136297
      dyz     :     0.258766
      dx2y2   :     0.193171
      dxy     :     0.208209
 14 O s       :     3.667062  s :     3.667062
      pz      :     1.524546  p :     4.800261
      px      :     1.705985
      py      :     1.569730
      dz2     :     0.007260  d :     0.028105
      dxz     :     0.003587
      dyz     :     0.011955
      dx2y2   :     0.003101
      dxy     :     0.002203
 15 O s       :     3.667855  s :     3.667855
      pz      :     1.684076  p :     4.766890
      px      :     1.534592
      py      :     1.548222
      dz2     :     0.004440  d :     0.030770
      dxz     :     0.003788
      dyz     :     0.002944
      dx2y2   :     0.006415
      dxy     :     0.013184
 16 O s       :     3.515148  s :     3.515148
      pz      :     1.547270  p :     4.695392
      px      :     1.668951
      py      :     1.479171
      dz2     :     0.007827  d :     0.023972
      dxz     :     0.002784
      dyz     :     0.007086
      dx2y2   :     0.000750
      dxy     :     0.005525
 17 H s       :     0.735098  s :     0.735098
      pz      :     0.040302  p :     0.203257
      px      :     0.082175
      py      :     0.080781
 18 H s       :     0.880090  s :     0.880090
      pz      :     0.012603  p :     0.072891
      px      :     0.042937
      py      :     0.017351
 19 H s       :     0.890436  s :     0.890436
      pz      :     0.013820  p :     0.067613
      px      :     0.010756
      py      :     0.043037
 20 H s       :     0.892665  s :     0.892665
      pz      :     0.013145  p :     0.067049
      px      :     0.033652
      py      :     0.020252
 21 H s       :     0.896076  s :     0.896076
      pz      :     0.014581  p :     0.067704
      px      :     0.032016
      py      :     0.021107
 22 H s       :     0.892814  s :     0.892814
      pz      :     0.013420  p :     0.066884
      px      :     0.036825
      py      :     0.016639


                      *****************************
                      * MAYER POPULATION ANALYSIS *
                      *****************************

  NA   - Mulliken gross atomic population
  ZA   - Total nuclear charge
  QA   - Mulliken gross atomic charge
  VA   - Mayer's total valence
  BVA  - Mayer's bonded valence
  FA   - Mayer's free valence

  ATOM       NA         ZA         QA         VA         BVA        FA
  0 C      5.9917     6.0000     0.0083     3.8144     3.8144    -0.0000
  1 C      6.0285     6.0000    -0.0285     3.8311     3.8311    -0.0000
  2 C      6.0015     6.0000    -0.0015     3.8938     3.8938    -0.0000
  3 C      5.9981     6.0000     0.0019     3.8362     3.8362    -0.0000
  4 C      6.0092     6.0000    -0.0092     3.8466     3.8466    -0.0000
  5 C      6.0037     6.0000    -0.0037     3.9517     3.9517     0.0000
  6 C      6.1674     6.0000    -0.1674     3.9015     3.9015     0.0000
  7 C      5.9227     6.0000     0.0773     3.8559     3.8559    -0.0000
  8 C      5.8763     6.0000     0.1237     3.9649     3.9649     0.0000
  9 C      6.0537     6.0000    -0.0537     3.8931     3.8931    -0.0000
 10 H      0.9709     1.0000     0.0291     1.0008     1.0008     0.0000
 11 O      8.3105     8.0000    -0.3105     2.1723     2.1723    -0.0000
 12 H      0.7828     1.0000     0.2172     1.0515     1.0515     0.0000
 13 S     15.0284    16.0000     0.9716     5.4330     5.4330    -0.0000
 14 O      8.4848     8.0000    -0.4848     1.9158     1.9158    -0.0000
 15 O      8.4212     8.0000    -0.4212     2.0387     2.0387     0.0000
 16 O      8.3299     8.0000    -0.3299     2.0630     2.0630    -0.0000
 17 H      0.7908     1.0000     0.2092     1.0606     1.0606    -0.0000
 18 H      0.9396     1.0000     0.0604     1.0173     1.0173     0.0000
 19 H      0.9615     1.0000     0.0385     0.9856     0.9856     0.0000
 20 H      0.9760     1.0000     0.0240     0.9909     0.9909    -0.0000
 21 H      0.9838     1.0000     0.0162     0.9917     0.9917     0.0000
 22 H      0.9668     1.0000     0.0332     0.9848     0.9848     0.0000

  Mayer bond orders larger than 0.100000
B(  0-C ,  1-C ) :   1.5062 B(  0-C ,  9-C ) :   1.2419 B(  0-C , 22-H ) :   0.9874 
B(  1-C ,  2-C ) :   1.2390 B(  1-C , 21-H ) :   0.9964 B(  2-C ,  3-C ) :   1.2288 
B(  2-C ,  7-C ) :   1.3007 B(  3-C ,  4-C ) :   1.5274 B(  3-C , 20-H ) :   0.9928 
B(  4-C ,  5-C ) :   1.2420 B(  4-C , 19-H ) :   0.9884 B(  5-C ,  6-C ) :   1.5625 
B(  5-C , 18-H ) :   0.9748 B(  6-C ,  7-C ) :   1.2199 B(  6-C , 13-S ) :   0.8657 
B(  7-C ,  8-C ) :   1.1821 B(  8-C ,  9-C ) :   1.5450 B(  8-C , 11-O ) :   1.0887 
B(  9-C , 10-H ) :   0.9850 B( 11-O , 12-H ) :   0.8842 B( 11-O , 17-H ) :   0.1130 
B( 12-H , 14-O ) :   0.1225 B( 13-S , 14-O ) :   1.6041 B( 13-S , 15-O ) :   1.8116 
B( 13-S , 16-O ) :   1.0158 B( 16-O , 17-H ) :   0.8916 

-------
TIMINGS
-------

Total SCF time: 0 days 0 hours 1 min 23 sec 

Total time                  ....      83.882 sec
Sum of individual times     ....      83.653 sec  ( 99.7%)

Fock matrix formation       ....      81.679 sec  ( 97.4%)
  XC integration            ....       4.038 sec  (  4.9% of F)
    Basis function eval.    ....       1.175 sec  ( 29.1% of XC)
    Density eval.           ....       0.823 sec  ( 20.4% of XC)
    XC-Functional eval.     ....       0.930 sec  ( 23.0% of XC)
    XC-Potential eval.      ....       0.996 sec  ( 24.7% of XC)
Diagonalization             ....       0.009 sec  (  0.0%)
Density matrix formation    ....       0.007 sec  (  0.0%)
Population analysis         ....       0.008 sec  (  0.0%)
Initial guess               ....       0.009 sec  (  0.0%)
Orbital Transformation      ....       0.000 sec  (  0.0%)
Orbital Orthonormalization  ....       0.006 sec  (  0.0%)
DIIS solution               ....       0.002 sec  (  0.0%)
SOSCF solution              ....       0.025 sec  (  0.0%)
Grid generation             ....       1.914 sec  (  2.3%)


-------------------------------------------------------------------------------
                          DFT DISPERSION CORRECTION                            
                                                                               
                              DFTD3 V3.1  Rev 1                                
                              USING zero damping                               
-------------------------------------------------------------------------------
The omegaB97X-D3 functional is recognized. Fit by Chai et al.
Active option DFTDOPT                   ...         3   

molecular C6(AA) [au] = 7835.752874 


            DFT-D V3
 parameters
 s6 scaling factor         :     1.0000 
 rs6 scaling factor        :     1.2810 
 s8 scaling factor         :     1.0000 
 rs8 scaling factor        :     1.0940 
 Damping factor alpha6     :    14.0000 
 Damping factor alpha8     :    16.0000 
 ad hoc parameters k1-k3   :    16.0000     1.3333    -4.0000 

 Edisp/kcal,au: -6.274294251770  -0.009998723273 
 E6   /kcal   :  -2.680797886 
 E8   /kcal   :  -3.593496366 
 % E8         :  57.273315882 

-------------------------   ----------------
Dispersion correction           -0.009998723
-------------------------   ----------------


-------------------------   --------------------
FINAL SINGLE POINT ENERGY     -1084.089494976471
-------------------------   --------------------

                                *** OPTIMIZATION RUN DONE ***

                            ***************************************
                            *     ORCA property calculations      *
                            ***************************************

                                    ---------------------
                                    Active property flags
                                    ---------------------
   (+) Dipole Moment


------------------------------------------------------------------------------
                       ORCA ELECTRIC PROPERTIES CALCULATION
------------------------------------------------------------------------------

Dipole Moment Calculation                       ... on
Quadrupole Moment Calculation                   ... off
Polarizability Calculation                      ... off
GBWName                                         ... 000067015.gbw
Electron density file                           ... 000067015.scfp
The origin for moment calculation is the CENTER OF MASS  = (-0.021243, -0.005241 -0.009655)

-------------
DIPOLE MOMENT
-------------
                                X             Y             Z
Electronic contribution:     -7.87201       1.20625       0.38752
Nuclear contribution   :      9.92119      -1.64528      -0.55119
                        -----------------------------------------
Total Dipole Moment    :      2.04918      -0.43904      -0.16367
                        -----------------------------------------
Magnitude (a.u.)       :      2.10207
Magnitude (Debye)      :      5.34303



--------------------
Rotational spectrum 
--------------------
 
Rotational constants in cm-1:     0.031192     0.017343     0.011962 
Rotational constants in MHz :   935.105212   519.935335   358.614008 

 Dipole components along the rotational axes: 
x,y,z [a.u.] :     2.044475    -0.460261    -0.164226 
x,y,z [Debye]:     5.196643    -1.169891    -0.417428 

 

Timings for individual modules:

Sum of individual times         ...     2985.846 sec (=  49.764 min)
GTO integral calculation        ...        3.356 sec (=   0.056 min)   0.1 %
SCF iterations                  ...     1978.997 sec (=  32.983 min)  66.3 %
SCF Gradient evaluation         ...     1002.418 sec (=  16.707 min)  33.6 %
Geometry relaxation             ...        1.075 sec (=   0.018 min)   0.0 %
                             ****ORCA TERMINATED NORMALLY****
TOTAL RUN TIME: 0 days 0 hours 49 minutes 47 seconds 347 msec
