
                                 *****************
                                 * O   R   C   A *
                                 *****************

           --- An Ab Initio, DFT and Semiempirical electronic structure package ---

                  #######################################################
                  #                        -***-                        #
                  #          Department of theory and spectroscopy      #
                  #               Directorship: Frank Neese             #
                  #        Max Planck Institute fuer Kohlenforschung    #
                  #                Kaiser Wilhelm Platz 1               #
                  #                 D-45470 Muelheim/Ruhr               #
                  #                      Germany                        #
                  #                                                     #
                  #                  All rights reserved                #
                  #                        -***-                        #
                  #######################################################


                         Program Version 4.2.0 -  RELEASE  -


 With contributions from (in alphabetic order):
   Daniel Aravena         : Magnetic Suceptibility
   Michael Atanasov       : Ab Initio Ligand Field Theory (pilot matlab implementation)
   Alexander A. Auer      : GIAO ZORA, VPT2
   Ute Becker             : Parallelization
   Giovanni Bistoni       : ED, misc. LED, open-shell LED, HFLED
   Martin Brehm           : Molecular dynamics
   Dmytro Bykov           : SCF Hessian
   Vijay G. Chilkuri      : MRCI spin determinant printing, contributions to CSF-ICE
   Dipayan Datta          : RHF DLPNO-CCSD density
   Achintya Kumar Dutta   : EOM-CC, STEOM-CC
   Dmitry Ganyushin       : Spin-Orbit,Spin-Spin,Magnetic field MRCI
   Miquel Garcia          : C-PCM Hessian, Gaussian charge scheme
   Yang Guo               : DLPNO-NEVPT2, CIM, IAO-localization
   Andreas Hansen         : Spin unrestricted coupled pair/coupled cluster methods
   Benjamin Helmich-Paris : CASSCF linear response (MC-RPA)
   Lee Huntington         : MR-EOM, pCC
   Robert Izsak           : Overlap fitted RIJCOSX, COSX-SCS-MP3, EOM
   Christian Kollmar      : KDIIS, OOCD, Brueckner-CCSD(T), CCSD density
   Simone Kossmann        : Meta GGA functionals, TD-DFT gradient, OOMP2, MP2 Hessian
   Martin Krupicka        : AUTO-CI
   Lucas Lang             : DCDCAS
   Dagmar Lenk            : GEPOL surface, SMD
   Dimitrios Liakos       : Extrapolation schemes; Compound Job, initial MDCI parallelization
   Dimitrios Manganas     : Further ROCIS development; embedding schemes
   Dimitrios Pantazis     : SARC Basis sets
   Taras Petrenko         : DFT Hessian,TD-DFT gradient, ASA, ECA, R-Raman, ABS, FL, XAS/XES, NRVS
   Peter Pinski           : DLPNO-MP2, DLPNO-MP2 Gradient
   Christoph Reimann      : Effective Core Potentials
   Marius Retegan         : Local ZFS, SOC
   Christoph Riplinger    : Optimizer, TS searches, QM/MM, DLPNO-CCSD(T), (RO)-DLPNO pert. Triples
   Tobias Risthaus        : Range-separated hybrids, TD-DFT gradient, RPA, STAB
   Michael Roemelt        : Original ROCIS implementation
   Masaaki Saitow         : Open-shell DLPNO-CCSD energy and density
   Barbara Sandhoefer     : DKH picture change effects
   Avijit Sen             : IP-ROCIS
   Kantharuban Sivalingam : CASSCF convergence, NEVPT2, FIC-MRCI
   Bernardo de Souza      : ESD, SOC TD-DFT
   Georgi Stoychev        : AutoAux, RI-MP2 NMR
   Willem Van den Heuvel  : Paramagnetic NMR
   Boris Wezisla          : Elementary symmetry handling
   Frank Wennmohs         : Technical directorship


 We gratefully acknowledge several colleagues who have allowed us to
 interface, adapt or use parts of their codes:
   Stefan Grimme, W. Hujo, H. Kruse,             : VdW corrections, initial TS optimization,
                  C. Bannwarth                     DFT functionals, gCP, sTDA/sTD-DF
   Ed Valeev, F. Pavosevic, A. Kumar             : LibInt (2-el integral package), F12 methods
   Garnet Chan, S. Sharma, J. Yang, R. Olivares  : DMRG
   Ulf Ekstrom                                   : XCFun DFT Library
   Mihaly Kallay                                 : mrcc  (arbitrary order and MRCC methods)
   Andreas Klamt, Michael Diedenhofen            : otool_cosmo (COSMO solvation model)
   Jiri Pittner, Ondrej Demel                    : Mk-CCSD
   Frank Weinhold                                : gennbo (NPA and NBO analysis)
   Christopher J. Cramer and Donald G. Truhlar   : smd solvation model
   Lars Goerigk                                  : TD-DFT with DH, B97 family of functionals
   V. Asgeirsson, H. Jonsson                     : NEB implementation
   FAccTs GmbH                                   : IRC, NEB, NEB-TS, Multilevel, MM, QM/MM, CI optimization
   S Lehtola, MJT Oliveira, MAL Marques          : LibXC Library


 Your calculation uses the libint2 library for the computation of 2-el integrals
 For citations please refer to: http://libint.valeyev.net

 Your ORCA version has been built with support for libXC version: 4.2.3
 For citations please refer to: https://tddft.org/programs/libxc/

 This ORCA versions uses:
   CBLAS   interface :  Fast vector & matrix operations
   LAPACKE interface :  Fast linear algebra routines
   SCALAPACK package :  Parallel linear algebra routines


Your calculation utilizes the atom-pairwise dispersion correction
with the zero-damping scheme (D30)
Cite in your paper:
S.Grimme, J.Antony, S.Ehrlich and H.Krieg, J.Chem.Phys., 132, (2010), 154104 
   

XCFun DFT library Copyright 2009-2010 Ulf Ekstrom and contributors.
See http://admol.org/xcfun for more information. This is free soft-
ware; see the source code for copying conditions. There is ABSOLUTELY
NO WARRANTY; not even for MERCHANTABILITY or FITNESS FOR A PARTICULAR
PURPOSE. For details see the documentation. Scientific users of this 
library should cite U. Ekstrom, L. Visscher, R. Bast, A. J. Thorvald-
sen and K. Ruud; J.Chem.Theor.Comp. 2010, DOI: 10.1021/ct100117s
XCFun Version 0.99 
----- Orbital basis set information -----
Your calculation utilizes the basis: def2-SVP
   F. Weigend and R. Ahlrichs, Phys. Chem. Chem. Phys. 7, 3297 (2005).

================================================================================
                                        WARNINGS
                       Please study these warnings very carefully!
================================================================================


WARNING: Geometry Optimization
  ===> : Switching off AutoStart
         For restart on a previous wavefunction, please use MOREAD

INFO   : the flag for use of LIBINT has been found!

================================================================================
                                       INPUT FILE
================================================================================
NAME = 014006941.inp
|  1> # ORCA input file
|  2> # -39.46113275
|  3> ! wB97X-D3 def2-SVP Opt
|  4> * xyz 0 1
|  5>    C       -2.72190        -0.89730        -0.01400
|  6>    C       -1.61750        -1.72480        -0.00710
|  7>    C       -0.34190        -1.17200         0.01550
|  8>    C       -0.19390         0.20090         0.03350
|  9>    C       -1.29150         1.03480         0.02390
| 10>    C       -2.57330         0.49160        -0.00150
| 11>    O       -3.68310         1.25690        -0.01370
| 12>    H       -3.44710         2.19350        -0.00210
| 13>    H       -1.11500         2.09980         0.03410
| 14>    S        1.42800         0.95040         0.08480
| 15>    O        2.20710         0.37880         1.13640
| 16>    O        1.26690         2.36290         0.02470
| 17>    O        2.04710         0.46860        -1.31540
| 18>    H        2.57320        -0.32710        -1.19800
| 19>   Cl        1.05180        -2.17130         0.01670
| 20>    H       -1.73600        -2.79620        -0.02100
| 21>    H       -3.71850        -1.30800        -0.03110
| 22> *
| 23> 
| 24>                          ****END OF INPUT****
================================================================================

                       *****************************
                       * Geometry Optimization Run *
                       *****************************

Geometry optimization settings:
Update method            Update   .... BFGS
Choice of coordinates    CoordSys .... Z-matrix Internals
Initial Hessian          InHess   .... Almoef's Model

Convergence Tolerances:
Energy Change            TolE     ....  5.0000e-06 Eh
Max. Gradient            TolMAXG  ....  3.0000e-04 Eh/bohr
RMS Gradient             TolRMSG  ....  1.0000e-04 Eh/bohr
Max. Displacement        TolMAXD  ....  4.0000e-03 bohr
RMS Displacement         TolRMSD  ....  2.0000e-03 bohr
Strict Convergence                ....  False
------------------------------------------------------------------------------
                        ORCA OPTIMIZATION COORDINATE SETUP
------------------------------------------------------------------------------

The optimization will be done in new redundant internal coordinates
Making redundant internal coordinates   ...  (new redundants) done
Evaluating the initial hessian          ...  (Almloef) done
Evaluating the coordinates              ...  done
Calculating the B-matrix                .... done
Calculating the G-matrix                .... done
Diagonalizing the G-matrix              .... done
The first mode is                       ....   33
The number of degrees of freedom        ....   45

    -----------------------------------------------------------------
                    Redundant Internal Coordinates


    -----------------------------------------------------------------
         Definition                    Initial Value    Approx d2E/dq
    -----------------------------------------------------------------
      1. B(C   1,C   0)                  1.3800         0.648087   
      2. B(C   2,C   1)                  1.3904         0.623845   
      3. B(C   3,C   2)                  1.3810         0.645867   
      4. B(C   4,C   3)                  1.3785         0.651805   
      5. B(C   5,C   4)                  1.3924         0.619357   
      6. B(C   5,C   0)                  1.3969         0.609197   
      7. B(O   6,C   5)                  1.3481         0.652613   
      8. B(H   7,O   6)                  0.9659         0.508723   
      9. B(H   8,C   4)                  1.0796         0.374159   
     10. B(S   9,C   3)                  1.7874         0.391216   
     11. B(O  10,S   9)                  1.4281         1.311572   
     12. B(O  11,S   9)                  1.4229         1.336935   
     13. B(O  12,S   9)                  1.6050         0.684934   
     14. B(H  13,O  12)                  0.9611         0.517870   
     15. B(Cl 14,C   2)                  1.7149         0.424934   
     16. B(H  15,C   1)                  1.0780         0.376298   
     17. B(H  16,C   0)                  1.0780         0.376269   
     18. A(C   1,C   0,H  16)          120.7606         0.358232   
     19. A(C   5,C   0,H  16)          118.5076         0.354487   
     20. A(C   1,C   0,C   5)          120.7316         0.436160   
     21. A(C   0,C   1,C   2)          119.7271         0.438032   
     22. A(C   0,C   1,H  15)          120.5244         0.358237   
     23. A(C   2,C   1,H  15)          119.7484         0.355923   
     24. A(C   1,C   2,Cl 14)          120.9250         0.424530   
     25. A(C   1,C   2,C   3)          119.5899         0.437761   
     26. A(C   3,C   2,Cl 14)          119.4848         0.427175   
     27. A(C   2,C   3,C   4)          121.0631         0.441239   
     28. A(C   4,C   3,S   9)          117.9718         0.425530   
     29. A(C   2,C   3,S   9)          120.9629         0.424834   
     30. A(C   5,C   4,H   8)          122.3802         0.355144   
     31. A(C   3,C   4,H   8)          117.8094         0.358238   
     32. A(C   3,C   4,C   5)          119.8102         0.437913   
     33. A(C   0,C   5,O   6)          118.4748         0.433846   
     34. A(C   0,C   5,C   4)          119.0772         0.432615   
     35. A(C   4,C   5,O   6)          122.4479         0.435139   
     36. A(C   5,O   6,H   7)          110.4377         0.371995   
     37. A(C   3,S   9,O  11)          108.1978         0.509782   
     38. A(C   3,S   9,O  10)          110.3844         0.507962   
     39. A(O  11,S   9,O  12)          107.7470         0.563309   
     40. A(O  10,S   9,O  12)          108.1683         0.561257   
     41. A(C   3,S   9,O  12)          101.4843         0.450672   
     42. A(O  10,S   9,O  11)          119.3519         0.638441   
     43. A(S   9,O  12,H  13)          110.6779         0.396813   
     44. D(H  15,C   1,C   0,H  16)      0.1394         0.029232   
     45. D(H  15,C   1,C   0,C   5)   -179.7402         0.029232   
     46. D(C   2,C   1,C   0,H  16)   -179.9783         0.029232   
     47. D(C   2,C   1,C   0,C   5)      0.1421         0.029232   
     48. D(C   3,C   2,C   1,H  15)   -179.9887         0.026951   
     49. D(Cl 14,C   2,C   1,C   0)   -179.6907         0.026951   
     50. D(C   3,C   2,C   1,C   0)      0.1281         0.026951   
     51. D(Cl 14,C   2,C   1,H  15)      0.1925         0.026951   
     52. D(S   9,C   3,C   2,Cl 14)     -1.0015         0.029019   
     53. D(S   9,C   3,C   2,C   1)    179.1771         0.029019   
     54. D(C   4,C   3,C   2,Cl 14)    179.5526         0.029019   
     55. D(C   4,C   3,C   2,C   1)     -0.2688         0.029019   
     56. D(H   8,C   4,C   3,C   2)   -179.7103         0.029593   
     57. D(C   5,C   4,C   3,S   9)   -179.3258         0.029593   
     58. D(C   5,C   4,C   3,C   2)      0.1362         0.029593   
     59. D(H   8,C   4,C   3,S   9)      0.8277         0.029593   
     60. D(O   6,C   5,C   4,H   8)     -0.0719         0.026541   
     61. D(C   0,C   5,C   4,H   8)    179.9728         0.026541   
     62. D(C   0,C   5,C   4,C   3)      0.1335         0.026541   
     63. D(O   6,C   5,C   0,H  16)     -0.1122         0.025627   
     64. D(O   6,C   5,C   0,C   1)    179.7701         0.025627   
     65. D(O   6,C   5,C   4,C   3)   -179.9111         0.026541   
     66. D(C   4,C   5,C   0,H  16)    179.8449         0.025627   
     67. D(C   4,C   5,C   0,C   1)     -0.2728         0.025627   
     68. D(H   7,O   6,C   5,C   4)     -0.0186         0.031497   
     69. D(H   7,O   6,C   5,C   0)    179.9370         0.031497   
     70. D(O  11,S   9,C   3,C   4)     -3.5124         0.004190   
     71. D(O  11,S   9,C   3,C   2)    177.0250         0.004190   
     72. D(O  10,S   9,C   3,C   4)    128.7561         0.004190   
     73. D(O  12,S   9,C   3,C   2)     63.8085         0.004190   
     74. D(O  10,S   9,C   3,C   2)    -50.7065         0.004190   
     75. D(O  12,S   9,C   3,C   4)   -116.7289         0.004190   
     76. D(H  13,O  12,S   9,O  11)    151.2673         0.010710   
     77. D(H  13,O  12,S   9,O  10)     20.9741         0.010710   
     78. D(H  13,O  12,S   9,C   3)    -95.1781         0.010710   
    -----------------------------------------------------------------

Number of atoms                         .... 17
Number of degrees of freedom            .... 78

         *************************************************************
         *                GEOMETRY OPTIMIZATION CYCLE   1            *
         *************************************************************
---------------------------------
CARTESIAN COORDINATES (ANGSTROEM)
---------------------------------
  C     -2.721900   -0.897300   -0.014000
  C     -1.617500   -1.724800   -0.007100
  C     -0.341900   -1.172000    0.015500
  C     -0.193900    0.200900    0.033500
  C     -1.291500    1.034800    0.023900
  C     -2.573300    0.491600   -0.001500
  O     -3.683100    1.256900   -0.013700
  H     -3.447100    2.193500   -0.002100
  H     -1.115000    2.099800    0.034100
  S      1.428000    0.950400    0.084800
  O      2.207100    0.378800    1.136400
  O      1.266900    2.362900    0.024700
  O      2.047100    0.468600   -1.315400
  H      2.573200   -0.327100   -1.198000
  Cl     1.051800   -2.171300    0.016700
  H     -1.736000   -2.796200   -0.021000
  H     -3.718500   -1.308000   -0.031100

----------------------------
CARTESIAN COORDINATES (A.U.)
----------------------------
  NO LB      ZA    FRAG     MASS         X           Y           Z
   0 C     6.0000    0    12.011   -5.143646   -1.695651   -0.026456
   1 C     6.0000    0    12.011   -3.056632   -3.259400   -0.013417
   2 C     6.0000    0    12.011   -0.646097   -2.214759    0.029291
   3 C     6.0000    0    12.011   -0.366418    0.379646    0.063306
   4 C     6.0000    0    12.011   -2.440581    1.955489    0.045164
   5 C     6.0000    0    12.011   -4.862832    0.928989   -0.002835
   6 O     8.0000    0    15.999   -6.960050    2.375197   -0.025889
   7 H     1.0000    0     1.008   -6.514075    4.145114   -0.003968
   8 H     1.0000    0     1.008   -2.107045    3.968047    0.064440
   9 S    16.0000    0    32.060    2.698529    1.795996    0.160249
  10 O     8.0000    0    15.999    4.170815    0.715828    2.147485
  11 O     8.0000    0    15.999    2.394094    4.465234    0.046676
  12 O     8.0000    0    15.999    3.868458    0.885526   -2.485746
  13 H     1.0000    0     1.008    4.862643   -0.618129   -2.263892
  14 Cl   17.0000    0    35.453    1.987614   -4.103162    0.031558
  15 H     1.0000    0     1.008   -3.280565   -5.284052   -0.039684
  16 H     1.0000    0     1.008   -7.026947   -2.471762   -0.058770

--------------------------------
INTERNAL COORDINATES (ANGSTROEM)
--------------------------------
 C      0   0   0     0.000000000000     0.00000000     0.00000000
 C      1   0   0     1.380037398044     0.00000000     0.00000000
 C      2   1   0     1.390415031564   119.72709956     0.00000000
 C      3   2   1     1.380971545688   119.58988645     0.12810325
 C      4   3   2     1.378480007109   121.06307635   359.73117986
 C      5   4   3     1.392380206696   119.81021687     0.13623145
 O      6   5   4     1.348142785465   122.44792838   180.08887394
 H      7   6   5     0.965945195133   110.43774478     0.00000000
 H      5   4   3     1.079574587511   117.80938632   180.28974429
 S      4   3   2     1.787439943047   120.96294238   179.17707643
 O     10   4   3     1.428140724859   110.38443063   309.29352831
 O     10   4   3     1.422927078244   108.19776928   177.02498423
 O     10   4   3     1.604984763168   101.48429545    63.80848103
 H     13  10   4     0.961094407434   110.67790621   264.82193931
 Cl     3   2   1     1.714934873399   120.92502320   180.30933224
 H      2   1   3     1.078022921834   120.52437676   180.11770447
 H      1   2   3     1.078043811726   120.76063036   180.02173079

---------------------------
INTERNAL COORDINATES (A.U.)
---------------------------
 C      0   0   0     0.000000000000     0.00000000     0.00000000
 C      1   0   0     2.607892736872     0.00000000     0.00000000
 C      2   1   0     2.627503622144   119.72709956     0.00000000
 C      3   2   1     2.609658020088   119.58988645     0.12810325
 C      4   3   2     2.604949694522   121.06307635   359.73117986
 C      5   4   3     2.631217264949   119.81021687     0.13623145
 O      6   5   4     2.547620653950   122.44792838   180.08887394
 H      7   6   5     1.825371879178   110.43774478     0.00000000
 H      5   4   3     2.040100311537   117.80938632   180.28974429
 S      4   3   2     3.377771973191   120.96294238   179.17707643
 O     10   4   3     2.698794850683   110.38443063   309.29352831
 O     10   4   3     2.688942486422   108.19776928   177.02498423
 O     10   4   3     3.032981651503   101.48429545    63.80848103
 H     13  10   4     1.816205218893   110.67790621   264.82193931
 Cl     3   2   1     3.240757248235   120.92502320   180.30933224
 H      2   1   3     2.037168088356   120.52437676   180.11770447
 H      1   2   3     2.037207564530   120.76063036   180.02173079

---------------------
BASIS SET INFORMATION
---------------------
There are 5 groups of distinct atoms

 Group   1 Type C   : 7s4p1d contracted to 3s2p1d pattern {511/31/1}
 Group   2 Type O   : 7s4p1d contracted to 3s2p1d pattern {511/31/1}
 Group   3 Type H   : 4s1p contracted to 2s1p pattern {31/1}
 Group   4 Type S   : 10s7p1d contracted to 4s3p1d pattern {5311/511/1}
 Group   5 Type Cl  : 10s7p1d contracted to 4s3p1d pattern {5311/511/1}

Atom   0C    basis set group =>   1
Atom   1C    basis set group =>   1
Atom   2C    basis set group =>   1
Atom   3C    basis set group =>   1
Atom   4C    basis set group =>   1
Atom   5C    basis set group =>   1
Atom   6O    basis set group =>   2
Atom   7H    basis set group =>   3
Atom   8H    basis set group =>   3
Atom   9S    basis set group =>   4
Atom  10O    basis set group =>   2
Atom  11O    basis set group =>   2
Atom  12O    basis set group =>   2
Atom  13H    basis set group =>   3
Atom  14Cl   basis set group =>   5
Atom  15H    basis set group =>   3
Atom  16H    basis set group =>   3
------------------------------------------------------------------------------
                           ORCA GTO INTEGRAL CALCULATION
------------------------------------------------------------------------------

                         BASIS SET STATISTICS AND STARTUP INFO

 # of primitive gaussian shells          ...  181
 # of primitive gaussian functions       ...  347
 # of contracted shells                  ...   91
 # of contracted basis functions         ...  201
 Highest angular momentum                ...    2
 Maximum contraction depth               ...    5
 Integral package used                   ... LIBINT
 Integral threshhold            Thresh   ...  2.500e-11
 Primitive cut-off              TCut     ...  2.500e-12


------------------------------ INTEGRAL EVALUATION ----------------------------


 * One electron integrals 
 Pre-screening matrix                    ... done
 Shell pair data                         ... done (   0.001 sec)

-------------------------------------------------------------------------------
                                 ORCA SCF
-------------------------------------------------------------------------------

------------
SCF SETTINGS
------------
Hamiltonian:
 Density Functional     Method          .... DFT(GTOs)
 Exchange Functional    Exchange        .... WB97X-D3
 Correlation Functional Correlation     .... WB97X-D3
 Gradients option       PostSCFGGA      .... off
 Hybrid DFT is turned on
   Fraction HF Exchange ScalHFX         ....  0.195728
   Scaling of DF-GGA-X  ScalDFX         ....  0.000000
   Scaling of DF-GGA-C  ScalDFC         ....  1.000000
   Scaling of DF-LDA-C  ScalLDAC        ....  1.000000
   Perturbative correction              ....  0.000000
   Density functional embedding theory  .... OFF
 Long-range corrected/Screened/Range-Separated Hybrid DFT is turned on
   Amount of maximum screened exact exchange              ....  0.804272
   Range separation parameter mu (erf(mu*r12)/r12)        ....  0.250000


General Settings:
 Integral files         IntName         .... 014006941
 Hartree-Fock type      HFTyp           .... RHF
 Total Charge           Charge          ....    0
 Multiplicity           Mult            ....    1
 Number of Electrons    NEL             ....  106
 Basis Dimension        Dim             ....  201
 Nuclear Repulsion      ENuc            ....    964.5532260799 Eh

Convergence Acceleration:
 DIIS                   CNVDIIS         .... on
   Start iteration      DIISMaxIt       ....    12
   Startup error        DIISStart       ....  0.200000
   # of expansion vecs  DIISMaxEq       ....     5
   Bias factor          DIISBfac        ....   1.050
   Max. coefficient     DIISMaxC        ....  10.000
 Newton-Raphson         CNVNR           .... off
 SOSCF                  CNVSOSCF        .... on
   Start iteration      SOSCFMaxIt      ....   150
   Startup grad/error   SOSCFStart      ....  0.003300
 Level Shifting         CNVShift        .... on
   Level shift para.    LevelShift      ....    0.2500
   Turn off err/grad.   ShiftErr        ....    0.0010
 Zerner damping         CNVZerner       .... off
 Static damping         CNVDamp         .... on
   Fraction old density DampFac         ....    0.7000
   Max. Damping (<1)    DampMax         ....    0.9800
   Min. Damping (>=0)   DampMin         ....    0.0000
   Turn off err/grad.   DampErr         ....    0.1000
 Fernandez-Rico         CNVRico         .... off

SCF Procedure:
 Maximum # iterations   MaxIter         ....   125
 SCF integral mode      SCFMode         .... Direct
   Integral package                     .... LIBINT
 Reset frequency        DirectResetFreq ....    20
 Integral Threshold     Thresh          ....  2.500e-11 Eh
 Primitive CutOff       TCut            ....  2.500e-12 Eh

Convergence Tolerance:
 Convergence Check Mode ConvCheckMode   .... Total+1el-Energy
 Convergence forced     ConvForced      .... 0
 Energy Change          TolE            ....  1.000e-08 Eh
 1-El. energy change                    ....  1.000e-05 Eh
 Orbital Gradient       TolG            ....  1.000e-05
 Orbital Rotation angle TolX            ....  1.000e-05
 DIIS Error             TolErr          ....  5.000e-07


Diagonalization of the overlap matrix:
Smallest eigenvalue                        ... 2.107e-04
Time for diagonalization                   ...    0.005 sec
Threshold for overlap eigenvalues          ... 1.000e-08
Number of eigenvalues below threshold      ... 0
Time for construction of square roots      ...    0.002 sec
Total time needed                          ...    0.008 sec

-------------------
DFT GRID GENERATION
-------------------

General Integration Accuracy     IntAcc      ...  4.340
Radial Grid Type                 RadialGrid  ... Gauss-Chebyshev
Angular Grid (max. acc.)         AngularGrid ... Lebedev-110
Angular grid pruning method      GridPruning ... 3 (G Style)
Weight generation scheme         WeightScheme... Becke
Basis function cutoff            BFCut       ...    1.0000e-11
Integration weight cutoff        WCut        ...    1.0000e-14
Grids for H and He will be reduced by one unit

# of grid points (after initial pruning)     ...  24420 (   0.0 sec)
# of grid points (after weights+screening)   ...  22640 (   0.0 sec)
nearest neighbour list constructed           ...    0.0 sec
Grid point re-assignment to atoms done       ...    0.0 sec
Grid point division into batches done        ...    0.0 sec
Reduced shell lists constructed in    0.2 sec

Total number of grid points                  ...    22640
Total number of batches                      ...      363
Average number of points per batch           ...       62
Average number of grid points per atom       ...     1332
Average number of shells per batch           ...    56.20 (61.75%)
Average number of basis functions per batch  ...   123.82 (61.60%)
Average number of large shells per batch     ...    41.93 (74.61%)
Average number of large basis fcns per batch ...    91.18 (73.64%)
Maximum spatial batch extension              ...  17.61, 19.21, 27.00 au
Average spatial batch extension              ...   3.49,  3.51,  4.11 au

Time for grid setup =    0.207 sec

------------------------------
INITIAL GUESS: MODEL POTENTIAL
------------------------------
Loading Hartree-Fock densities                     ... done
Calculating cut-offs                               ... done
Setting up the integral package                    ... done
Initializing the effective Hamiltonian             ... done
Starting the Coulomb interaction                   ... done (   0.1 sec)
Reading the grid                                   ... done
Mapping shells                                     ... done
Starting the XC term evaluation                    ... done (   0.2 sec)
  promolecular density results
     # of electrons  =    106.007356620
     EX              =   -117.263394953
     EC              =     -3.806677726
     EX+EC           =   -121.070072679
Transforming the Hamiltonian                       ... done (   0.0 sec)
Diagonalizing the Hamiltonian                      ... done (   0.0 sec)
Back transforming the eigenvectors                 ... done (   0.0 sec)
Now organizing SCF variables                       ... done
                      ------------------
                      INITIAL GUESS DONE (   0.6 sec)
                      ------------------
--------------
SCF ITERATIONS
--------------
ITER       Energy         Delta-E        Max-DP      RMS-DP      [F,P]     Damp
               ***  Starting incremental Fock matrix formation  ***
  0  -1389.6460761323   0.000000000000 0.16054066  0.00265537  0.2618379 0.7000
  1  -1389.8170154780  -0.170939345745 0.08710952  0.00175985  0.1211551 0.7000
                               ***Turning on DIIS***
  2  -1389.8894586673  -0.072443189265 0.08492418  0.00307027  0.0520843 0.0000
  3  -1390.0087887125  -0.119330045203 0.07984686  0.00117557  0.0607397 0.0000
  4  -1390.0290834758  -0.020294763291 0.00983183  0.00027048  0.0089459 0.0000
                      *** Initiating the SOSCF procedure ***
                           *** Shutting down DIIS ***
                      *** Re-Reading the Fockian *** 
                      *** Removing any level shift *** 
ITER      Energy       Delta-E        Grad      Rot      Max-DP    RMS-DP
  5  -1390.02965441  -0.0005709347  0.000933  0.000933  0.002274  0.000088
               *** Restarting incremental Fock matrix formation ***
  6  -1390.02970607  -0.0000516625  0.000435  0.000909  0.001119  0.000045
  7  -1390.02971448  -0.0000084109  0.000252  0.000633  0.000822  0.000031
  8  -1390.02971701  -0.0000025308  0.000082  0.000139  0.000442  0.000011
  9  -1390.02971743  -0.0000004150  0.000023  0.000041  0.000193  0.000004
 10  -1390.02971746  -0.0000000298  0.000016  0.000039  0.000041  0.000001
 11  -1390.02971748  -0.0000000170  0.000006  0.000017  0.000028  0.000001
 12  -1390.02971748  -0.0000000024  0.000004  0.000010  0.000010  0.000000
                  ***Gradient check signals convergence***
              ***Rediagonalizing the Fockian in SOSCF/NRSCF***

               *****************************************************
               *                     SUCCESS                       *
               *           SCF CONVERGED AFTER  13 CYCLES          *
               *****************************************************

Setting up the final grid:

General Integration Accuracy     IntAcc      ...  4.670
Radial Grid Type                 RadialGrid  ... Gauss-Chebyshev
Angular Grid (max. acc.)         AngularGrid ... Lebedev-302
Angular grid pruning method      GridPruning ... 3 (G Style)
Weight generation scheme         WeightScheme... Becke
Basis function cutoff            BFCut       ...    1.0000e-11
Integration weight cutoff        WCut        ...    1.0000e-14
Grids for H and He will be reduced by one unit

# of grid points (after initial pruning)     ...  92674 (   0.0 sec)
# of grid points (after weights+screening)   ...  84623 (   0.2 sec)
nearest neighbour list constructed           ...    0.0 sec
Grid point re-assignment to atoms done       ...    0.0 sec
Grid point division into batches done        ...    0.3 sec
Reduced shell lists constructed in    0.8 sec

Total number of grid points                  ...    84623
Total number of batches                      ...     1329
Average number of points per batch           ...       63
Average number of grid points per atom       ...     4978
Average number of shells per batch           ...    50.97 (56.01%)
Average number of basis functions per batch  ...   111.40 (55.42%)
Average number of large shells per batch     ...    37.27 (73.13%)
Average number of large basis fcns per batch ...    80.31 (72.09%)
Maximum spatial batch extension              ...  16.68, 19.76, 22.79 au
Average spatial batch extension              ...   2.36,  2.40,  2.61 au

Final grid set up in    1.0 sec
Final integration                            ... done (   1.0 sec)
Change in XC energy                          ...    -0.000703768
Integrated number of electrons               ...   105.999931765
Previous integrated no of electrons          ...   106.003909718

----------------
TOTAL SCF ENERGY
----------------

Total Energy       :        -1390.03042125 Eh          -37824.65073 eV

Components:
Nuclear Repulsion  :          964.55322608 Eh           26246.82764 eV
Electronic Energy  :        -2354.58364733 Eh          -64071.47837 eV
One Electron Energy:        -3827.66001221 Eh         -104155.92412 eV
Two Electron Energy:         1473.07636488 Eh           40084.44574 eV

Virial components:
Potential Energy   :        -2773.94838604 Eh          -75482.97306 eV
Kinetic Energy     :         1383.91796480 Eh           37658.32233 eV
Virial Ratio       :            2.00441678


DFT components:
N(Alpha)           :       52.999965882707 electrons
N(Beta)            :       52.999965882707 electrons
N(Total)           :      105.999931765414 electrons
E(XC)              :      -88.100622076666 Eh       
DFET-embed. en.    :        0.000000000000 Eh       

---------------
SCF CONVERGENCE
---------------

  Last Energy change         ...    7.6375e-10  Tolerance :   1.0000e-08
  Last MAX-Density change    ...    3.7121e-06  Tolerance :   1.0000e-07
  Last RMS-Density change    ...    1.4499e-07  Tolerance :   5.0000e-09
  Last Orbital Gradient      ...    1.2184e-06  Tolerance :   1.0000e-05
  Last Orbital Rotation      ...    5.0256e-06  Tolerance :   1.0000e-05

             **** THE GBW FILE WAS UPDATED (014006941.gbw) ****
             **** DENSITY FILE WAS UPDATED (014006941.scfp) ****
             **** ENERGY FILE WAS UPDATED (014006941.en.tmp) ****
             **** THE GBW FILE WAS UPDATED (014006941.gbw) ****
             **** DENSITY FILE WAS UPDATED (014006941.scfp) ****
----------------
ORBITAL ENERGIES
----------------

  NO   OCC          E(Eh)            E(eV) 
   0   2.0000    -101.623439     -2765.3144 
   1   2.0000     -89.197370     -2427.1838 
   2   2.0000     -19.301782      -525.2282 
   3   2.0000     -19.298175      -525.1300 
   4   2.0000     -19.245118      -523.6863 
   5   2.0000     -19.240007      -523.5472 
   6   2.0000     -10.387243      -282.6512 
   7   2.0000     -10.376025      -282.3460 
   8   2.0000     -10.348854      -281.6066 
   9   2.0000     -10.332585      -281.1639 
  10   2.0000     -10.329272      -281.0738 
  11   2.0000     -10.323552      -280.9181 
  12   2.0000      -9.596506      -261.1342 
  13   2.0000      -8.279184      -225.2881 
  14   2.0000      -7.357032      -200.1950 
  15   2.0000      -7.346560      -199.9101 
  16   2.0000      -7.346037      -199.8958 
  17   2.0000      -6.238631      -169.7618 
  18   2.0000      -6.236877      -169.7140 
  19   2.0000      -6.235804      -169.6848 
  20   2.0000      -1.282526       -34.8993 
  21   2.0000      -1.198377       -32.6095 
  22   2.0000      -1.161255       -31.5993 
  23   2.0000      -1.134170       -30.8623 
  24   2.0000      -1.044651       -28.4264 
  25   2.0000      -0.981142       -26.6982 
  26   2.0000      -0.917975       -24.9794 
  27   2.0000      -0.868805       -23.6414 
  28   2.0000      -0.812392       -22.1063 
  29   2.0000      -0.764034       -20.7904 
  30   2.0000      -0.743116       -20.2212 
  31   2.0000      -0.702480       -19.1155 
  32   2.0000      -0.657289       -17.8857 
  33   2.0000      -0.635841       -17.3021 
  34   2.0000      -0.612245       -16.6600 
  35   2.0000      -0.610658       -16.6168 
  36   2.0000      -0.588301       -16.0085 
  37   2.0000      -0.570487       -15.5237 
  38   2.0000      -0.560367       -15.2484 
  39   2.0000      -0.538677       -14.6581 
  40   2.0000      -0.530326       -14.4309 
  41   2.0000      -0.516735       -14.0611 
  42   2.0000      -0.508749       -13.8438 
  43   2.0000      -0.493008       -13.4154 
  44   2.0000      -0.477588       -12.9958 
  45   2.0000      -0.458733       -12.4828 
  46   2.0000      -0.443463       -12.0672 
  47   2.0000      -0.436883       -11.8882 
  48   2.0000      -0.435039       -11.8380 
  49   2.0000      -0.418439       -11.3863 
  50   2.0000      -0.405176       -11.0254 
  51   2.0000      -0.382451       -10.4070 
  52   2.0000      -0.333017        -9.0618 
  53   0.0000       0.017349         0.4721 
  54   0.0000       0.043257         1.1771 
  55   0.0000       0.101825         2.7708 
  56   0.0000       0.126992         3.4556 
  57   0.0000       0.139796         3.8041 
  58   0.0000       0.169152         4.6029 
  59   0.0000       0.176143         4.7931 
  60   0.0000       0.187812         5.1106 
  61   0.0000       0.202736         5.5167 
  62   0.0000       0.211810         5.7636 
  63   0.0000       0.218833         5.9548 
  64   0.0000       0.231625         6.3028 
  65   0.0000       0.259322         7.0565 
  66   0.0000       0.320335         8.7168 
  67   0.0000       0.336590         9.1591 
  68   0.0000       0.349066         9.4986 
  69   0.0000       0.358215         9.7475 
  70   0.0000       0.389231        10.5915 
  71   0.0000       0.403606        10.9827 
  72   0.0000       0.456552        12.4234 
  73   0.0000       0.467578        12.7234 
  74   0.0000       0.497174        13.5288 
  75   0.0000       0.508767        13.8443 
  76   0.0000       0.516347        14.0505 
  77   0.0000       0.528714        14.3870 
  78   0.0000       0.561223        15.2717 
  79   0.0000       0.573556        15.6072 
  80   0.0000       0.594716        16.1830 
  81   0.0000       0.600002        16.3269 
  82   0.0000       0.607385        16.5278 
  83   0.0000       0.620052        16.8725 
  84   0.0000       0.646047        17.5798 
  85   0.0000       0.658713        17.9245 
  86   0.0000       0.668917        18.2021 
  87   0.0000       0.676908        18.4196 
  88   0.0000       0.693172        18.8622 
  89   0.0000       0.713034        19.4027 
  90   0.0000       0.724705        19.7202 
  91   0.0000       0.746261        20.3068 
  92   0.0000       0.753925        20.5153 
  93   0.0000       0.759918        20.6784 
  94   0.0000       0.765310        20.8251 
  95   0.0000       0.784939        21.3593 
  96   0.0000       0.789231        21.4761 
  97   0.0000       0.804395        21.8887 
  98   0.0000       0.813935        22.1483 
  99   0.0000       0.852024        23.1848 
 100   0.0000       0.854565        23.2539 
 101   0.0000       0.864048        23.5119 
 102   0.0000       0.886395        24.1200 
 103   0.0000       0.890540        24.2328 
 104   0.0000       0.903643        24.5894 
 105   0.0000       0.932016        25.3614 
 106   0.0000       0.938732        25.5442 
 107   0.0000       0.947928        25.7944 
 108   0.0000       0.959877        26.1196 
 109   0.0000       0.977779        26.6067 
 110   0.0000       1.001188        27.2437 
 111   0.0000       1.025582        27.9075 
 112   0.0000       1.061142        28.8751 
 113   0.0000       1.070813        29.1383 
 114   0.0000       1.093271        29.7494 
 115   0.0000       1.108153        30.1544 
 116   0.0000       1.124804        30.6075 
 117   0.0000       1.132322        30.8120 
 118   0.0000       1.141889        31.0724 
 119   0.0000       1.180613        32.1261 
 120   0.0000       1.209388        32.9091 
 121   0.0000       1.246604        33.9218 
 122   0.0000       1.249891        34.0113 
 123   0.0000       1.271079        34.5878 
 124   0.0000       1.284061        34.9411 
 125   0.0000       1.287293        35.0290 
 126   0.0000       1.312480        35.7144 
 127   0.0000       1.322948        35.9993 
 128   0.0000       1.330653        36.2089 
 129   0.0000       1.340330        36.4722 
 130   0.0000       1.359427        36.9919 
 131   0.0000       1.368110        37.2282 
 132   0.0000       1.397155        38.0185 
 133   0.0000       1.417136        38.5622 
 134   0.0000       1.425414        38.7875 
 135   0.0000       1.486047        40.4374 
 136   0.0000       1.503211        40.9045 
 137   0.0000       1.556530        42.3553 
 138   0.0000       1.575157        42.8622 
 139   0.0000       1.607811        43.7508 
 140   0.0000       1.614374        43.9293 
 141   0.0000       1.657656        45.1071 
 142   0.0000       1.669223        45.4219 
 143   0.0000       1.730374        47.0859 
 144   0.0000       1.767011        48.0828 
 145   0.0000       1.795609        48.8610 
 146   0.0000       1.811155        49.2840 
 147   0.0000       1.825412        49.6720 
 148   0.0000       1.855845        50.5001 
 149   0.0000       1.860352        50.6227 
 150   0.0000       1.902919        51.7811 
 151   0.0000       1.919672        52.2369 
 152   0.0000       1.934626        52.6439 
 153   0.0000       1.947051        52.9819 
 154   0.0000       1.974781        53.7365 
 155   0.0000       2.008063        54.6422 
 156   0.0000       2.047214        55.7075 
 157   0.0000       2.095736        57.0279 
 158   0.0000       2.186834        59.5068 
 159   0.0000       2.199868        59.8615 
 160   0.0000       2.229589        60.6702 
 161   0.0000       2.244314        61.0709 
 162   0.0000       2.276547        61.9480 
 163   0.0000       2.296123        62.4807 
 164   0.0000       2.328089        63.3505 
 165   0.0000       2.358490        64.1778 
 166   0.0000       2.364658        64.3456 
 167   0.0000       2.366115        64.3853 
 168   0.0000       2.406825        65.4930 
 169   0.0000       2.499061        68.0029 
 170   0.0000       2.514894        68.4337 
 171   0.0000       2.666862        72.5690 
 172   0.0000       2.693506        73.2940 
 173   0.0000       2.697469        73.4019 
 174   0.0000       2.697973        73.4156 
 175   0.0000       2.708692        73.7072 
 176   0.0000       2.719771        74.0087 
 177   0.0000       2.734382        74.4063 
 178   0.0000       2.762374        75.1680 
 179   0.0000       2.770590        75.3916 
 180   0.0000       2.788710        75.8847 
 181   0.0000       2.846479        77.4566 
 182   0.0000       2.899380        78.8961 
 183   0.0000       2.929927        79.7274 
 184   0.0000       2.956519        80.4510 
 185   0.0000       2.973640        80.9169 
 186   0.0000       2.985957        81.2520 
 187   0.0000       3.010142        81.9101 
 188   0.0000       3.043461        82.8168 
 189   0.0000       3.066421        83.4416 
 190   0.0000       3.073798        83.6423 
 191   0.0000       3.120815        84.9217 
 192   0.0000       3.169839        86.2557 
 193   0.0000       3.186022        86.6961 
 194   0.0000       3.337912        90.8292 
 195   0.0000       3.443882        93.7128 
 196   0.0000       3.476109        94.5897 
 197   0.0000       3.577639        97.3525 
 198   0.0000       3.648238        99.2736 
 199   0.0000       3.771153       102.6183 
 200   0.0000       3.891559       105.8947 

                    ********************************
                    * MULLIKEN POPULATION ANALYSIS *
                    ********************************

-----------------------
MULLIKEN ATOMIC CHARGES
-----------------------
   0 C :   -0.034145
   1 C :    0.002148
   2 C :    0.045756
   3 C :   -0.109032
   4 C :   -0.087598
   5 C :    0.189502
   6 O :   -0.198929
   7 H :    0.194924
   8 H :    0.028693
   9 S :    0.964746
  10 O :   -0.428780
  11 O :   -0.423414
  12 O :   -0.338469
  13 H :    0.208400
  14 Cl:   -0.074826
  15 H :    0.027813
  16 H :    0.033210
Sum of atomic charges:    0.0000000

--------------------------------
MULLIKEN REDUCED ORBITAL CHARGES
--------------------------------
  0 C s       :     3.219127  s :     3.219127
      pz      :     1.007429  p :     2.781806
      px      :     0.835857
      py      :     0.938520
      dz2     :     0.002676  d :     0.033213
      dxz     :     0.003570
      dyz     :     0.005694
      dx2y2   :     0.012221
      dxy     :     0.009052
  1 C s       :     3.235962  s :     3.235962
      pz      :     0.970429  p :     2.726146
      px      :     0.901200
      py      :     0.854518
      dz2     :     0.002718  d :     0.035743
      dxz     :     0.007730
      dyz     :     0.002954
      dx2y2   :     0.012185
      dxy     :     0.010157
  2 C s       :     2.962034  s :     2.962034
      pz      :     1.067743  p :     2.937382
      px      :     0.841968
      py      :     1.027671
      dz2     :     0.003984  d :     0.054828
      dxz     :     0.008160
      dyz     :     0.008129
      dx2y2   :     0.016607
      dxy     :     0.017949
  3 C s       :     2.962866  s :     2.962866
      pz      :     1.068291  p :     3.104421
      px      :     0.978404
      py      :     1.057726
      dz2     :     0.003646  d :     0.041745
      dxz     :     0.004085
      dyz     :     0.008360
      dx2y2   :     0.013099
      dxy     :     0.012556
  4 C s       :     3.290499  s :     3.290499
      pz      :     1.024620  p :     2.763777
      px      :     0.874779
      py      :     0.864378
      dz2     :     0.002840  d :     0.033321
      dxz     :     0.007053
      dyz     :     0.002865
      dx2y2   :     0.010570
      dxy     :     0.009993
  5 C s       :     2.951052  s :     2.951052
      pz      :     0.955643  p :     2.779587
      px      :     0.848724
      py      :     0.975220
      dz2     :     0.005553  d :     0.079859
      dxz     :     0.015413
      dyz     :     0.010923
      dx2y2   :     0.023097
      dxy     :     0.024872
  6 O s       :     3.663009  s :     3.663009
      pz      :     1.825276  p :     4.521511
      px      :     1.513702
      py      :     1.182532
      dz2     :     0.002154  d :     0.014409
      dxz     :     0.002563
      dyz     :     0.000542
      dx2y2   :     0.004431
      dxy     :     0.004719
  7 H s       :     0.735480  s :     0.735480
      pz      :     0.018181  p :     0.069595
      px      :     0.014784
      py      :     0.036630
  8 H s       :     0.946354  s :     0.946354
      pz      :     0.004815  p :     0.024953
      px      :     0.004076
      py      :     0.016062
  9 S s       :     5.240384  s :     5.240384
      pz      :     2.922378  p :     8.970048
      px      :     3.041057
      py      :     3.006614
      dz2     :     0.171752  d :     0.824821
      dxz     :     0.125415
      dyz     :     0.186089
      dx2y2   :     0.162867
      dxy     :     0.178699
 10 O s       :     3.826968  s :     3.826968
      pz      :     1.422539  p :     4.582082
      px      :     1.547405
      py      :     1.612139
      dz2     :     0.005069  d :     0.019730
      dxz     :     0.005170
      dyz     :     0.004282
      dx2y2   :     0.002511
      dxy     :     0.002698
 11 O s       :     3.817475  s :     3.817475
      pz      :     1.652847  p :     4.586119
      px      :     1.665604
      py      :     1.267667
      dz2     :     0.002102  d :     0.019820
      dxz     :     0.000092
      dyz     :     0.005711
      dx2y2   :     0.006186
      dxy     :     0.005729
 12 O s       :     3.730235  s :     3.730235
      pz      :     1.497584  p :     4.594829
      px      :     1.623677
      py      :     1.473568
      dz2     :     0.004987  d :     0.013406
      dxz     :     0.003156
      dyz     :     0.002740
      dx2y2   :     0.000843
      dxy     :     0.001680
 13 H s       :     0.723096  s :     0.723096
      pz      :     0.012872  p :     0.068505
      px      :     0.023023
      py      :     0.032609
 14 Cls       :     5.938736  s :     5.938736
      pz      :     3.924507  p :    11.095682
      px      :     3.465035
      py      :     3.706139
      dz2     :     0.005840  d :     0.040409
      dxz     :     0.006702
      dyz     :     0.003609
      dx2y2   :     0.006920
      dxy     :     0.017337
 15 H s       :     0.948369  s :     0.948369
      pz      :     0.004546  p :     0.023818
      px      :     0.003422
      py      :     0.015850
 16 H s       :     0.943375  s :     0.943375
      pz      :     0.004602  p :     0.023415
      px      :     0.013980
      py      :     0.004834


                     *******************************
                     * LOEWDIN POPULATION ANALYSIS *
                     *******************************

----------------------
LOEWDIN ATOMIC CHARGES
----------------------
   0 C :   -0.029116
   1 C :   -0.020637
   2 C :   -0.149204
   3 C :   -0.197017
   4 C :   -0.064026
   5 C :    0.055398
   6 O :   -0.044110
   7 H :    0.101746
   8 H :    0.040607
   9 S :    1.186374
  10 O :   -0.482521
  11 O :   -0.467430
  12 O :   -0.233909
  13 H :    0.069801
  14 Cl:    0.145902
  15 H :    0.043230
  16 H :    0.044912

-------------------------------
LOEWDIN REDUCED ORBITAL CHARGES
-------------------------------
  0 C s       :     2.853576  s :     2.853576
      pz      :     0.987115  p :     3.087541
      px      :     1.053894
      py      :     1.046532
      dz2     :     0.006482  d :     0.088000
      dxz     :     0.006248
      dyz     :     0.011599
      dx2y2   :     0.035436
      dxy     :     0.028234
  1 C s       :     2.854139  s :     2.854139
      pz      :     0.961086  p :     3.073022
      px      :     1.058946
      py      :     1.052990
      dz2     :     0.006629  d :     0.093477
      dxz     :     0.016426
      dyz     :     0.004827
      dx2y2   :     0.035683
      dxy     :     0.029911
  2 C s       :     2.887334  s :     2.887334
      pz      :     1.060310  p :     3.131682
      px      :     1.013262
      py      :     1.058110
      dz2     :     0.008695  d :     0.130189
      dxz     :     0.015767
      dyz     :     0.016526
      dx2y2   :     0.044355
      dxy     :     0.044846
  3 C s       :     2.902432  s :     2.902432
      pz      :     1.054864  p :     3.189886
      px      :     1.042902
      py      :     1.092120
      dz2     :     0.008473  d :     0.104699
      dxz     :     0.007717
      dyz     :     0.017362
      dx2y2   :     0.037034
      dxy     :     0.034113
  4 C s       :     2.853788  s :     2.853788
      pz      :     1.008817  p :     3.119534
      px      :     1.053283
      py      :     1.057434
      dz2     :     0.006947  d :     0.090704
      dxz     :     0.014850
      dyz     :     0.004850
      dx2y2   :     0.033299
      dxy     :     0.030758
  5 C s       :     2.831358  s :     2.831358
      pz      :     0.942576  p :     2.934482
      px      :     0.963519
      py      :     1.028387
      dz2     :     0.011528  d :     0.178762
      dxz     :     0.029903
      dyz     :     0.021044
      dx2y2   :     0.057484
      dxy     :     0.058802
  6 O s       :     3.402890  s :     3.402890
      pz      :     1.786412  p :     4.613778
      px      :     1.555270
      py      :     1.272097
      dz2     :     0.004096  d :     0.027442
      dxz     :     0.003081
      dyz     :     0.000977
      dx2y2   :     0.009689
      dxy     :     0.009599
  7 H s       :     0.721744  s :     0.721744
      pz      :     0.048724  p :     0.176510
      px      :     0.040234
      py      :     0.087552
  8 H s       :     0.883876  s :     0.883876
      pz      :     0.015754  p :     0.075517
      px      :     0.014085
      py      :     0.045678
  9 S s       :     5.006220  s :     5.006220
      pz      :     2.874771  p :     8.745967
      px      :     2.952227
      py      :     2.918968
      dz2     :     0.226709  d :     1.061439
      dxz     :     0.166982
      dyz     :     0.229753
      dx2y2   :     0.214267
      dxy     :     0.223727
 10 O s       :     3.665965  s :     3.665965
      pz      :     1.531238  p :     4.785124
      px      :     1.602410
      py      :     1.651475
      dz2     :     0.006902  d :     0.031433
      dxz     :     0.010015
      dyz     :     0.007109
      dx2y2   :     0.003112
      dxy     :     0.004295
 11 O s       :     3.656755  s :     3.656755
      pz      :     1.671966  p :     4.779247
      px      :     1.679313
      py      :     1.427969
      dz2     :     0.004531  d :     0.031427
      dxz     :     0.000148
      dyz     :     0.006698
      dx2y2   :     0.013153
      dxy     :     0.006898
 12 O s       :     3.500359  s :     3.500359
      pz      :     1.547815  p :     4.710169
      px      :     1.635611
      py      :     1.526743
      dz2     :     0.008471  d :     0.023381
      dxz     :     0.004919
      dyz     :     0.004216
      dx2y2   :     0.001573
      dxy     :     0.004202
 13 H s       :     0.741866  s :     0.741866
      pz      :     0.038206  p :     0.188333
      px      :     0.064227
      py      :     0.085900
 14 Cls       :     5.739325  s :     5.739325
      pz      :     3.904025  p :    11.067643
      px      :     3.471716
      py      :     3.691902
      dz2     :     0.006807  d :     0.047130
      dxz     :     0.007592
      dyz     :     0.003965
      dx2y2   :     0.008030
      dxy     :     0.020735
 15 H s       :     0.886581  s :     0.886581
      pz      :     0.014225  p :     0.070189
      px      :     0.011216
      py      :     0.044748
 16 H s       :     0.883910  s :     0.883910
      pz      :     0.015141  p :     0.071178
      px      :     0.039920
      py      :     0.016117


                      *****************************
                      * MAYER POPULATION ANALYSIS *
                      *****************************

  NA   - Mulliken gross atomic population
  ZA   - Total nuclear charge
  QA   - Mulliken gross atomic charge
  VA   - Mayer's total valence
  BVA  - Mayer's bonded valence
  FA   - Mayer's free valence

  ATOM       NA         ZA         QA         VA         BVA        FA
  0 C      6.0341     6.0000    -0.0341     3.8410     3.8410     0.0000
  1 C      5.9979     6.0000     0.0021     3.9423     3.9423     0.0000
  2 C      5.9542     6.0000     0.0458     3.9837     3.9837     0.0000
  3 C      6.1090     6.0000    -0.1090     4.0063     4.0063     0.0000
  4 C      6.0876     6.0000    -0.0876     3.9134     3.9134    -0.0000
  5 C      5.8105     6.0000     0.1895     3.9697     3.9697     0.0000
  6 O      8.1989     8.0000    -0.1989     2.2395     2.2395    -0.0000
  7 H      0.8051     1.0000     0.1949     1.0030     1.0030    -0.0000
  8 H      0.9713     1.0000     0.0287     1.0323     1.0323    -0.0000
  9 S     15.0353    16.0000     0.9647     5.5401     5.5401     0.0000
 10 O      8.4288     8.0000    -0.4288     1.9870     1.9870    -0.0000
 11 O      8.4234     8.0000    -0.4234     2.0324     2.0324     0.0000
 12 O      8.3385     8.0000    -0.3385     2.0483     2.0483    -0.0000
 13 H      0.7916     1.0000     0.2084     1.0292     1.0292    -0.0000
 14 Cl    17.0748    17.0000    -0.0748     1.1774     1.1774     0.0000
 15 H      0.9722     1.0000     0.0278     1.0023     1.0023     0.0000
 16 H      0.9668     1.0000     0.0332     0.9995     0.9995     0.0000

  Mayer bond orders larger than 0.100000
B(  0-C ,  1-C ) :   1.3945 B(  0-C ,  5-C ) :   1.3536 B(  0-C , 16-H ) :   0.9966 
B(  1-C ,  2-C ) :   1.3991 B(  1-C , 15-H ) :   0.9989 B(  2-C ,  3-C ) :   1.4360 
B(  2-C , 14-Cl) :   1.0202 B(  3-C ,  4-C ) :   1.4301 B(  3-C ,  9-S ) :   0.8416 
B(  4-C ,  5-C ) :   1.3007 B(  4-C ,  8-H ) :   0.9830 B(  5-C ,  6-O ) :   1.2021 
B(  6-O ,  7-H ) :   0.9592 B(  9-S , 10-O ) :   1.7965 B(  9-S , 11-O ) :   1.8180 
B(  9-S , 12-O ) :   0.9847 B( 12-O , 13-H ) :   0.9341 

-------
TIMINGS
-------

Total SCF time: 0 days 0 hours 1 min 51 sec 

Total time                  ....     111.649 sec
Sum of individual times     ....     111.462 sec  ( 99.8%)

Fock matrix formation       ....     109.782 sec  ( 98.3%)
  XC integration            ....       4.748 sec  (  4.3% of F)
    Basis function eval.    ....       1.441 sec  ( 30.4% of XC)
    Density eval.           ....       0.841 sec  ( 17.7% of XC)
    XC-Functional eval.     ....       1.221 sec  ( 25.7% of XC)
    XC-Potential eval.      ....       1.106 sec  ( 23.3% of XC)
Diagonalization             ....       0.027 sec  (  0.0%)
Density matrix formation    ....       0.011 sec  (  0.0%)
Population analysis         ....       0.004 sec  (  0.0%)
Initial guess               ....       0.429 sec  (  0.4%)
Orbital Transformation      ....       0.000 sec  (  0.0%)
Orbital Orthonormalization  ....       0.000 sec  (  0.0%)
DIIS solution               ....       0.009 sec  (  0.0%)
SOSCF solution              ....       0.022 sec  (  0.0%)
Grid generation             ....       1.177 sec  (  1.1%)


-------------------------------------------------------------------------------
                          DFT DISPERSION CORRECTION                            
                                                                               
                              DFTD3 V3.1  Rev 1                                
                              USING zero damping                               
-------------------------------------------------------------------------------
The omegaB97X-D3 functional is recognized. Fit by Chai et al.
Active option DFTDOPT                   ...         3   

molecular C6(AA) [au] = 5277.048017 


            DFT-D V3
 parameters
 s6 scaling factor         :     1.0000 
 rs6 scaling factor        :     1.2810 
 s8 scaling factor         :     1.0000 
 rs8 scaling factor        :     1.0940 
 Damping factor alpha6     :    14.0000 
 Damping factor alpha8     :    16.0000 
 ad hoc parameters k1-k3   :    16.0000     1.3333    -4.0000 

 Edisp/kcal,au: -4.339889806947  -0.006916053898 
 E6   /kcal   :  -1.690499316 
 E8   /kcal   :  -2.649390491 
 % E8         :  61.047413856 

-------------------------   ----------------
Dispersion correction           -0.006916054
-------------------------   ----------------


-------------------------   --------------------
FINAL SINGLE POINT ENERGY     -1390.037337299861
-------------------------   --------------------

------------------------------------------------------------------------------
                         ORCA SCF GRADIENT CALCULATION
------------------------------------------------------------------------------

Gradient of the Kohn-Sham DFT energy:
Kohn-Sham wavefunction type      ... RKS
Hartree-Fock exchange scaling    ...    0.196
Number of operators              ...    1
Number of atoms                  ...   17
Basis set dimensions             ...  201
Integral neglect threshold       ... 2.5e-11
Integral primitive cutoff        ... 2.5e-12

Nuclear repulsion gradient       ... done
One Electron Gradient            ... done
Pre-screening matrix             ... done
Starting the two electron gradient:
Two electron gradient done
Exchange-correlation gradient    ... done
Dispersion correction            ... done

------------------
CARTESIAN GRADIENT
------------------

   1   C   :    0.000371155   -0.006008405   -0.000041883
   2   C   :   -0.004117103   -0.004872332    0.000092943
   3   C   :    0.001071774    0.004134922   -0.000835510
   4   C   :   -0.010618665   -0.004241349    0.000915252
   5   C   :    0.005542053   -0.000351262   -0.000037534
   6   C   :    0.002091155   -0.004193460   -0.000410902
   7   O   :   -0.000653417   -0.000688664   -0.000019361
   8   H   :    0.000180415    0.003820017    0.000021841
   9   H   :    0.000279702   -0.010326959    0.000093481
  10   S   :    0.003813391    0.010982492    0.002662716
  11   O   :   -0.011247254    0.012688742   -0.017119498
  12   O   :    0.007439374   -0.026644911    0.008949480
  13   O   :    0.003907470   -0.010713833    0.008131124
  14   H   :   -0.002644840    0.006816532   -0.004035375
  15   Cl  :   -0.005268977    0.016174808    0.001331176
  16   H   :    0.000647890    0.009631530    0.000089045
  17   H   :    0.009205876    0.003792132    0.000213005

Difference to translation invariance:
           :   -0.0000000000   -0.0000000000    0.0000000000

Norm of the cartesian gradient     ...    0.0521569869
RMS gradient                       ...    0.0073034390
MAX gradient                       ...    0.0266449109

-------
TIMINGS
-------

Total SCF gradient time            ...       42.199 sec

One electron gradient       ....       0.135 sec  (  0.3%)
Prescreening matrices       ....       0.111 sec  (  0.3%)
Two electron gradient       ....      38.328 sec  ( 90.8%)
XC gradient                 ....       3.478 sec  (  8.2%)
------------------------------------------------------------------------------
                         ORCA GEOMETRY RELAXATION STEP
------------------------------------------------------------------------------

Reading the OPT-File                    .... done
Getting information on internals        .... done
Copying old internal coords+grads       .... done
Making the new internal coordinates     .... (new redundants).... done
Validating the new internal coordinates .... (new redundants).... done
Calculating the B-matrix                .... done
Calculating the G,G- and P matrices     .... done
Transforming gradient to internals      .... done
Projecting the internal gradient        .... done
Number of atoms                         ....  17
Number of internal coordinates          ....  78
Current Energy                          .... -1390.037337300 Eh
Current gradient norm                   ....     0.052156987 Eh/bohr
Maximum allowed component of the step   ....  0.300
Current trust radius                    ....  0.300
Evaluating the initial hessian          ....  (Almloef) done
Projecting the Hessian                  .... done
Forming the augmented Hessian           .... done
Diagonalizing the augmented Hessian     .... done
Last element of RFO vector              ....  0.979516508
Lowest eigenvalues of augmented Hessian:
 -0.007078053  0.004439646  0.010767065  0.019303301  0.026285826
Length of the computed step             ....  0.205574763
The final length of the internal step   ....  0.205574763
Converting the step to cartesian space:
 Initial RMS(Int)=    0.0232767583
Transforming coordinates:
 Iter   0:  RMS(Cart)=    0.0658433703 RMS(Int)=    1.4222501843
 Iter   1:  RMS(Cart)=    0.0018867267 RMS(Int)=    0.0012868889
 Iter   2:  RMS(Cart)=    0.0001127255 RMS(Int)=    0.0000534787
 Iter   3:  RMS(Cart)=    0.0000075570 RMS(Int)=    0.0000055153
 Iter   4:  RMS(Cart)=    0.0000004932 RMS(Int)=    0.0000003004
 Iter   5:  RMS(Cart)=    0.0000000363 RMS(Int)=    0.0000000268
done
Storing new coordinates                 .... done

                                .--------------------.
          ----------------------|Geometry convergence|-------------------------
          Item                value                   Tolerance       Converged
          ---------------------------------------------------------------------
          RMS gradient        0.0071401414            0.0001000000      NO
          MAX gradient        0.0276715236            0.0003000000      NO
          RMS step            0.0232767583            0.0020000000      NO
          MAX step            0.0775293581            0.0040000000      NO
          ........................................................
          Max(Bonds)      0.0183      Max(Angles)    2.49
          Max(Dihed)        4.44      Max(Improp)    0.00
          ---------------------------------------------------------------------

The optimization has not yet converged - more geometry cycles are needed


    ---------------------------------------------------------------------------
                         Redundant Internal Coordinates
                            (Angstroem and degrees)

        Definition                    Value    dE/dq     Step     New-Value
    ----------------------------------------------------------------------------
     1. B(C   1,C   0)                1.3800 -0.008056  0.0062    1.3863   
     2. B(C   2,C   1)                1.3904 -0.004836  0.0042    1.3946   
     3. B(C   3,C   2)                1.3810 -0.022105  0.0183    1.3993   
     4. B(C   4,C   3)                1.3785 -0.013954  0.0115    1.3900   
     5. B(C   5,C   4)                1.3924 -0.002851  0.0023    1.3946   
     6. B(C   5,C   0)                1.3969 -0.000825  0.0003    1.3971   
     7. B(O   6,C   5)                1.3481  0.002166 -0.0017    1.3464   
     8. B(H   7,O   6)                0.9659  0.003748 -0.0038    0.9621   
     9. B(H   8,C   4)                1.0796 -0.010142  0.0141    1.0937   
    10. B(S   9,C   3)                1.7874 -0.001767  0.0023    1.7898   
    11. B(O  10,S   9)                1.4281 -0.023814  0.0096    1.4377   
    12. B(O  11,S   9)                1.4229 -0.027672  0.0109    1.4338   
    13. B(O  12,S   9)                1.6050 -0.001924  0.0015    1.6065   
    14. B(H  13,O  12)                0.9611 -0.007591  0.0077    0.9687   
    15. B(Cl 14,C   2)                1.7149 -0.013706  0.0168    1.7317   
    16. B(H  15,C   1)                1.0780 -0.009644  0.0133    1.0913   
    17. B(H  16,C   0)                1.0780 -0.009958  0.0137    1.0918   
    18. A(C   1,C   0,H  16)          120.76  0.000224    0.03    120.79   
    19. A(C   5,C   0,H  16)          118.51  0.000227    0.03    118.54   
    20. A(C   1,C   0,C   5)          120.73 -0.000451   -0.07    120.67   
    21. A(C   0,C   1,C   2)          119.73 -0.004997    0.65    120.38   
    22. A(C   0,C   1,H  15)          120.52  0.002075   -0.26    120.27   
    23. A(C   2,C   1,H  15)          119.75  0.002921   -0.39    119.36   
    24. A(C   1,C   2,Cl 14)          120.93  0.013517   -1.84    119.09   
    25. A(C   1,C   2,C   3)          119.59  0.005683   -0.65    118.94   
    26. A(C   3,C   2,Cl 14)          119.48 -0.019198    2.49    121.97   
    27. A(C   2,C   3,C   4)          121.06  0.003313   -0.33    120.74   
    28. A(C   4,C   3,S   9)          117.97  0.012737   -1.75    116.23   
    29. A(C   2,C   3,S   9)          120.96 -0.016049    2.07    123.03   
    30. A(C   5,C   4,H   8)          122.38  0.002912   -0.45    121.93   
    31. A(C   3,C   4,H   8)          117.81 -0.001101    0.18    117.99   
    32. A(C   3,C   4,C   5)          119.81 -0.001811    0.27    120.08   
    33. A(C   0,C   5,O   6)          118.47  0.003118   -0.36    118.12   
    34. A(C   0,C   5,C   4)          119.08 -0.001738    0.13    119.20   
    35. A(C   4,C   5,O   6)          122.45 -0.001380    0.23    122.68   
    36. A(C   5,O   6,H   7)          110.44  0.001384   -0.21    110.23   
    37. A(C   3,S   9,O  11)          108.20  0.004754   -0.75    107.45   
    38. A(C   3,S   9,O  10)          110.38  0.001588    0.03    110.41   
    39. A(O  11,S   9,O  12)          107.75  0.004429   -0.86    106.89   
    40. A(O  10,S   9,O  12)          108.17 -0.001798    0.42    108.58   
    41. A(C   3,S   9,O  12)          101.48 -0.000947   -0.21    101.28   
    42. A(O  10,S   9,O  11)          119.35 -0.007096    1.15    120.50   
    43. A(S   9,O  12,H  13)          110.68  0.006082   -0.86    109.82   
    44. D(H  15,C   1,C   0,H  16)      0.14 -0.000075    0.12      0.26   
    45. D(H  15,C   1,C   0,C   5)   -179.74 -0.000235    0.37   -179.37   
    46. D(C   2,C   1,C   0,H  16)   -179.98 -0.000030    0.04   -179.93   
    47. D(C   2,C   1,C   0,C   5)      0.14 -0.000190    0.29      0.44   
    48. D(C   3,C   2,C   1,H  15)   -179.99  0.000174   -0.30   -180.29   
    49. D(Cl 14,C   2,C   1,C   0)   -179.69 -0.000628    1.08   -178.61   
    50. D(C   3,C   2,C   1,C   0)      0.13  0.000131   -0.22     -0.10   
    51. D(Cl 14,C   2,C   1,H  15)      0.19 -0.000584    1.00      1.20   
    52. D(S   9,C   3,C   2,Cl 14)     -1.00  0.001125   -1.76     -2.76   
    53. D(S   9,C   3,C   2,C   1)    179.18  0.000318   -0.47    178.71   
    54. D(C   4,C   3,C   2,Cl 14)    179.55  0.000907   -1.42    178.13   
    55. D(C   4,C   3,C   2,C   1)     -0.27  0.000100   -0.13     -0.40   
    56. D(H   8,C   4,C   3,C   2)   -179.71 -0.000129    0.13   -179.58   
    57. D(C   5,C   4,C   3,S   9)   -179.33 -0.000356    0.72   -178.61   
    58. D(C   5,C   4,C   3,C   2)      0.14 -0.000297    0.41      0.55   
    59. D(H   8,C   4,C   3,S   9)      0.83 -0.000188    0.43      1.26   
    60. D(O   6,C   5,C   4,H   8)     -0.07 -0.000047    0.10      0.03   
    61. D(C   0,C   5,C   4,H   8)    179.97  0.000047   -0.04    179.94   
    62. D(C   0,C   5,C   4,C   3)      0.13  0.000230   -0.34     -0.20   
    63. D(O   6,C   5,C   0,H  16)     -0.11 -0.000046    0.10     -0.02   
    64. D(O   6,C   5,C   0,C   1)    179.77  0.000111   -0.15    179.62   
    65. D(O   6,C   5,C   4,C   3)   -179.91  0.000136   -0.20   -180.11   
    66. D(C   4,C   5,C   0,H  16)    179.84 -0.000138    0.23    180.07   
    67. D(C   4,C   5,C   0,C   1)     -0.27  0.000019   -0.01     -0.29   
    68. D(H   7,O   6,C   5,C   4)     -0.02  0.000046   -0.07     -0.08   
    69. D(H   7,O   6,C   5,C   0)    179.94 -0.000050    0.07    180.01   
    70. D(O  11,S   9,C   3,C   4)     -3.51  0.004300   -4.44     -7.95   
    71. D(O  11,S   9,C   3,C   2)    177.02  0.004132   -4.12    172.90   
    72. D(O  10,S   9,C   3,C   4)    128.76 -0.000036   -3.50    125.26   
    73. D(O  12,S   9,C   3,C   2)     63.81 -0.002098   -2.80     61.01   
    74. D(O  10,S   9,C   3,C   2)    -50.71 -0.000204   -3.18    -53.89   
    75. D(O  12,S   9,C   3,C   4)   -116.73 -0.001931   -3.12   -119.85   
    76. D(H  13,O  12,S   9,O  11)    151.27 -0.005098    2.64    153.91   
    77. D(H  13,O  12,S   9,O  10)     20.97  0.002010    1.50     22.47   
    78. D(H  13,O  12,S   9,C   3)    -95.18  0.001366    1.41    -93.77   
    ----------------------------------------------------------------------------

         *************************************************************
         *                GEOMETRY OPTIMIZATION CYCLE   2            *
         *************************************************************
---------------------------------
CARTESIAN COORDINATES (ANGSTROEM)
---------------------------------
  C     -2.728452   -0.892453   -0.007609
  C     -1.625373   -1.731966   -0.019842
  C     -0.335466   -1.201992   -0.003913
  C     -0.174807    0.187826    0.022537
  C     -1.279947    1.030846    0.024678
  C     -2.567570    0.495248    0.011730
  O     -3.674049    1.262385    0.015159
  H     -3.433092    2.193723    0.028783
  H     -1.102428    2.109902    0.038826
  S      1.427239    0.983844    0.078593
  O      2.200004    0.478381    1.180552
  O      1.212378    2.393259   -0.073817
  O      2.085505    0.461527   -1.290558
  H      2.611914   -0.333518   -1.119476
  Cl     1.018333   -2.280598   -0.055898
  H     -1.758554   -2.814847   -0.045202
  H     -3.741235   -1.300066   -0.018844

----------------------------
CARTESIAN COORDINATES (A.U.)
----------------------------
  NO LB      ZA    FRAG     MASS         X           Y           Z
   0 C     6.0000    0    12.011   -5.156027   -1.686491   -0.014379
   1 C     6.0000    0    12.011   -3.071509   -3.272942   -0.037495
   2 C     6.0000    0    12.011   -0.633939   -2.271435   -0.007395
   3 C     6.0000    0    12.011   -0.330338    0.354939    0.042588
   4 C     6.0000    0    12.011   -2.418749    1.948017    0.046636
   5 C     6.0000    0    12.011   -4.852003    0.935884    0.022167
   6 O     8.0000    0    15.999   -6.942946    2.385562    0.028646
   7 H     1.0000    0     1.008   -6.487603    4.145536    0.054393
   8 H     1.0000    0     1.008   -2.083286    3.987136    0.073371
   9 S    16.0000    0    32.060    2.697090    1.859195    0.148518
  10 O     8.0000    0    15.999    4.157405    0.904009    2.230920
  11 O     8.0000    0    15.999    2.291062    4.522604   -0.139494
  12 O     8.0000    0    15.999    3.941033    0.872159   -2.438800
  13 H     1.0000    0     1.008    4.935801   -0.630257   -2.115502
  14 Cl   17.0000    0    35.453    1.924371   -4.309706   -0.105631
  15 H     1.0000    0     1.008   -3.323186   -5.319290   -0.085420
  16 H     1.0000    0     1.008   -7.069910   -2.456769   -0.035610

--------------------------------
INTERNAL COORDINATES (ANGSTROEM)
--------------------------------
 C      0   0   0     0.000000000000     0.00000000     0.00000000
 C      1   0   0     1.386259858868     0.00000000     0.00000000
 C      2   1   0     1.394627572679   120.38042300     0.00000000
 C      3   2   1     1.399322414186   118.93629913   359.90597077
 C      4   3   2     1.389971944562   120.73889578   359.60761576
 C      5   4   3     1.394634314407   120.07525394     0.54175104
 O      6   5   4     1.346405126890   122.67730599   179.89552781
 H      7   6   5     0.962099969629   110.22851999   359.91459860
 H      5   4   3     1.093651651062   117.99349028   180.41512424
 S      4   3   2     1.789787052144   123.03116872   178.71231858
 O     10   4   3     1.437697216435   110.41148258   306.11317062
 O     10   4   3     1.433822174517   107.44096221   172.90675794
 O     10   4   3     1.606456176439   101.27282511    61.00501429
 H     13  10   4     0.968746718645   109.81505045   266.23094339
 Cl     3   2   1     1.731723380596   119.07989293   181.36295499
 H      2   1   3     1.091334687928   120.26521824   180.19161813
 H      1   2   3     1.091790113452   120.79413164   180.06725457

---------------------------
INTERNAL COORDINATES (A.U.)
---------------------------
 C      0   0   0     0.000000000000     0.00000000     0.00000000
 C      1   0   0     2.619651483709     0.00000000     0.00000000
 C      2   1   0     2.635464171178   120.38042300     0.00000000
 C      3   2   1     2.644336135870   118.93629913   359.90597077
 C      4   3   2     2.626666309057   120.73889578   359.60761576
 C      5   4   3     2.635476911198   120.07525394     0.54175104
 O      6   5   4     2.544336955130   122.67730599   179.89552781
 H      7   6   5     1.818105456052   110.22851999   359.91459860
 H      5   4   3     2.066702106419   117.99349028   180.41512424
 S      4   3   2     3.382207366590   123.03116872   178.71231858
 O     10   4   3     2.716854002564   110.41148258   306.11317062
 O     10   4   3     2.709531234581   107.44096221   172.90675794
 O     10   4   3     3.035762219616   101.27282511    61.00501429
 H     13  10   4     1.830665991374   109.81505045   266.23094339
 Cl     3   2   1     3.272482929035   119.07989293   181.36295499
 H      2   1   3     2.062323680632   120.26521824   180.19161813
 H      1   2   3     2.063184310147   120.79413164   180.06725457


Diagonalization of the overlap matrix:
Smallest eigenvalue                        ... 2.205e-04
Time for diagonalization                   ...    0.006 sec
Threshold for overlap eigenvalues          ... 1.000e-08
Number of eigenvalues below threshold      ... 0
Time for construction of square roots      ...    0.003 sec
Total time needed                          ...    0.008 sec

-------------------
DFT GRID GENERATION
-------------------

General Integration Accuracy     IntAcc      ...  4.340
Radial Grid Type                 RadialGrid  ... Gauss-Chebyshev
Angular Grid (max. acc.)         AngularGrid ... Lebedev-110
Angular grid pruning method      GridPruning ... 3 (G Style)
Weight generation scheme         WeightScheme... Becke
Basis function cutoff            BFCut       ...    1.0000e-11
Integration weight cutoff        WCut        ...    1.0000e-14
Grids for H and He will be reduced by one unit

# of grid points (after initial pruning)     ...  24420 (   0.0 sec)
# of grid points (after weights+screening)   ...  22660 (   0.0 sec)
nearest neighbour list constructed           ...    0.0 sec
Grid point re-assignment to atoms done       ...    0.0 sec
Grid point division into batches done        ...    0.0 sec
Reduced shell lists constructed in    0.2 sec

Total number of grid points                  ...    22660
Total number of batches                      ...      362
Average number of points per batch           ...       62
Average number of grid points per atom       ...     1333
Average number of shells per batch           ...    56.10 (61.65%)
Average number of basis functions per batch  ...   123.58 (61.48%)
Average number of large shells per batch     ...    41.85 (74.60%)
Average number of large basis fcns per batch ...    90.98 (73.62%)
Maximum spatial batch extension              ...  17.83, 19.64, 25.74 au
Average spatial batch extension              ...   3.47,  3.61,  4.15 au

Time for grid setup =    0.206 sec

--------------
SCF ITERATIONS
--------------
ITER       Energy         Delta-E        Max-DP      RMS-DP      [F,P]     Damp
               ***  Starting incremental Fock matrix formation  ***
  0  -1390.0226176293   0.000000000000 0.00874020  0.00031671  0.0337685 0.7000
                      *** Initiating the SOSCF procedure ***
                      *** Re-Reading the Fockian *** 
                      *** Removing any level shift *** 
ITER      Energy       Delta-E        Grad      Rot      Max-DP    RMS-DP
  1  -1390.02513402  -0.0025163864  0.002347  0.002347  0.023820  0.000909
               *** Restarting incremental Fock matrix formation ***
  2  -1390.03263069  -0.0074966732  0.002310  0.002993  0.007130  0.000237
  3  -1390.03315220  -0.0005215120  0.000651  0.002041  0.005233  0.000152
  4  -1390.03318820  -0.0000360014  0.000996  0.001320  0.001836  0.000053
  5  -1390.03321498  -0.0000267824  0.000125  0.000214  0.000294  0.000011
  6  -1390.03321543  -0.0000004468  0.000069  0.000108  0.000167  0.000005
  7  -1390.03321571  -0.0000002799  0.000017  0.000056  0.000117  0.000002
  8  -1390.03321573  -0.0000000141  0.000012  0.000024  0.000027  0.000001
  9  -1390.03321574  -0.0000000116  0.000006  0.000019  0.000023  0.000000
 10  -1390.03321574  -0.0000000012  0.000003  0.000008  0.000010  0.000000
                  ***Gradient check signals convergence***
              ***Rediagonalizing the Fockian in SOSCF/NRSCF***

               *****************************************************
               *                     SUCCESS                       *
               *           SCF CONVERGED AFTER  11 CYCLES          *
               *****************************************************

Setting up the final grid:

General Integration Accuracy     IntAcc      ...  4.670
Radial Grid Type                 RadialGrid  ... Gauss-Chebyshev
Angular Grid (max. acc.)         AngularGrid ... Lebedev-302
Angular grid pruning method      GridPruning ... 3 (G Style)
Weight generation scheme         WeightScheme... Becke
Basis function cutoff            BFCut       ...    1.0000e-11
Integration weight cutoff        WCut        ...    1.0000e-14
Grids for H and He will be reduced by one unit

# of grid points (after initial pruning)     ...  92674 (   0.0 sec)
# of grid points (after weights+screening)   ...  84687 (   0.2 sec)
nearest neighbour list constructed           ...    0.0 sec
Grid point re-assignment to atoms done       ...    0.0 sec
Grid point division into batches done        ...    0.3 sec
Reduced shell lists constructed in    0.8 sec

Total number of grid points                  ...    84687
Total number of batches                      ...     1332
Average number of points per batch           ...       63
Average number of grid points per atom       ...     4982
[...]
 150   0.0000       1.905496        51.8512 
 151   0.0000       1.916574        52.1526 
 152   0.0000       1.925583        52.3978 
 153   0.0000       1.936582        52.6971 
 154   0.0000       1.957436        53.2645 
 155   0.0000       1.997240        54.3477 
 156   0.0000       2.036203        55.4079 
 157   0.0000       2.081549        56.6418 
 158   0.0000       2.175443        59.1968 
 159   0.0000       2.184900        59.4542 
 160   0.0000       2.219019        60.3826 
 161   0.0000       2.236205        60.8502 
 162   0.0000       2.272723        61.8439 
 163   0.0000       2.277066        61.9621 
 164   0.0000       2.319458        63.1157 
 165   0.0000       2.346256        63.8449 
 166   0.0000       2.346738        63.8580 
 167   0.0000       2.350913        63.9716 
 168   0.0000       2.392115        65.0928 
 169   0.0000       2.480135        67.4879 
 170   0.0000       2.504634        68.1545 
 171   0.0000       2.661932        72.4348 
 172   0.0000       2.679241        72.9058 
 173   0.0000       2.683342        73.0175 
 174   0.0000       2.693835        73.3030 
 175   0.0000       2.701508        73.5118 
 176   0.0000       2.715705        73.8981 
 177   0.0000       2.732151        74.3456 
 178   0.0000       2.748043        74.7781 
 179   0.0000       2.776680        75.5573 
 180   0.0000       2.796865        76.1066 
 181   0.0000       2.839517        77.2672 
 182   0.0000       2.877026        78.2878 
 183   0.0000       2.907989        79.1304 
 184   0.0000       2.939889        79.9984 
 185   0.0000       2.950745        80.2938 
 186   0.0000       2.986118        81.2564 
 187   0.0000       3.002237        81.6950 
 188   0.0000       3.030973        82.4770 
 189   0.0000       3.041870        82.7735 
 190   0.0000       3.073219        83.6265 
 191   0.0000       3.089212        84.0617 
 192   0.0000       3.143235        85.5318 
 193   0.0000       3.177344        86.4599 
 194   0.0000       3.326262        90.5122 
 195   0.0000       3.430260        93.3421 
 196   0.0000       3.462673        94.2241 
 197   0.0000       3.545730        96.4842 
 198   0.0000       3.627168        98.7003 
 199   0.0000       3.763646       102.4140 
 200   0.0000       3.890499       105.8659 

                    ********************************
                    * MULLIKEN POPULATION ANALYSIS *
                    ********************************

-----------------------
MULLIKEN ATOMIC CHARGES
-----------------------
   0 C :   -0.039035
   1 C :    0.001768
   2 C :    0.043480
   3 C :   -0.131241
   4 C :   -0.080537
   5 C :    0.179431
   6 O :   -0.192558
   7 H :    0.193070
   8 H :    0.041331
   9 S :    0.982813
  10 O :   -0.431157
  11 O :   -0.439034
  12 O :   -0.336659
  13 H :    0.205338
  14 Cl:   -0.077321
  15 H :    0.038152
  16 H :    0.042157
Sum of atomic charges:    0.0000000

--------------------------------
MULLIKEN REDUCED ORBITAL CHARGES
--------------------------------
  0 C s       :     3.221129  s :     3.221129
      pz      :     1.007741  p :     2.785331
      px      :     0.840933
      py      :     0.936657
      dz2     :     0.002670  d :     0.032576
      dxz     :     0.003511
      dyz     :     0.005547
      dx2y2   :     0.011947
      dxy     :     0.008900
  1 C s       :     3.228169  s :     3.228169
      pz      :     0.967240  p :     2.734909
      px      :     0.894681
      py      :     0.872988
      dz2     :     0.002710  d :     0.035154
      dxz     :     0.007769
      dyz     :     0.002864
      dx2y2   :     0.011880
      dxy     :     0.009930
  2 C s       :     2.966123  s :     2.966123
      pz      :     1.076090  p :     2.938062
      px      :     0.848005
      py      :     1.013967
      dz2     :     0.003868  d :     0.052335
      dxz     :     0.007526
      dyz     :     0.007875
      dx2y2   :     0.015432
      dxy     :     0.017634
  3 C s       :     2.979934  s :     2.979934
      pz      :     1.064970  p :     3.110627
      px      :     0.986029
      py      :     1.059628
      dz2     :     0.003603  d :     0.040679
      dxz     :     0.004081
      dyz     :     0.008144
      dx2y2   :     0.012309
      dxy     :     0.012541
  4 C s       :     3.277889  s :     3.277889
      pz      :     1.027377  p :     2.770179
      px      :     0.872276
      py      :     0.870526
      dz2     :     0.002833  d :     0.032468
      dxz     :     0.006831
      dyz     :     0.002768
      dx2y2   :     0.010311
      dxy     :     0.009725
  5 C s       :     2.959906  s :     2.959906
      pz      :     0.951809  p :     2.780615
      px      :     0.851215
      py      :     0.977591
      dz2     :     0.005564  d :     0.080049
      dxz     :     0.015534
      dyz     :     0.010931
      dx2y2   :     0.023178
      dxy     :     0.024840
  6 O s       :     3.660891  s :     3.660891
      pz      :     1.822668  p :     4.517072
      px      :     1.510060
      py      :     1.184344
      dz2     :     0.002168  d :     0.014595
      dxz     :     0.002603
      dyz     :     0.000540
      dx2y2   :     0.004549
      dxy     :     0.004735
  7 H s       :     0.736836  s :     0.736836
      pz      :     0.018341  p :     0.070094
      px      :     0.014958
      py      :     0.036795
  8 H s       :     0.934247  s :     0.934247
      pz      :     0.004608  p :     0.024421
      px      :     0.003856
      py      :     0.015957
  9 S s       :     5.250415  s :     5.250415
      pz      :     2.924909  p :     8.964068
      px      :     3.033301
      py      :     3.005859
      dz2     :     0.168439  d :     0.802704
      dxz     :     0.131791
      dyz     :     0.184587
      dx2y2   :     0.146619
      dxy     :     0.171267
 10 O s       :     3.836167  s :     3.836167
      pz      :     1.390554  p :     4.575844
      px      :     1.575517
      py      :     1.609773
      dz2     :     0.005360  d :     0.019146
      dxz     :     0.005110
      dyz     :     0.004451
      dx2y2   :     0.001998
      dxy     :     0.002227
 11 O s       :     3.830840  s :     3.830840
      pz      :     1.658846  p :     4.589008
      px      :     1.663541
      py      :     1.266620
      dz2     :     0.002148  d :     0.019186
      dxz     :     0.000195
      dyz     :     0.005422
      dx2y2   :     0.005985
      dxy     :     0.005437
 12 O s       :     3.743331  s :     3.743331
      pz      :     1.510342  p :     4.579530
      px      :     1.698712
      py      :     1.370477
      dz2     :     0.004499  d :     0.013797
      dxz     :     0.003523
      dyz     :     0.002924
      dx2y2   :     0.002048
      dxy     :     0.000802
 13 H s       :     0.726017  s :     0.726017
      pz      :     0.013401  p :     0.068645
      px      :     0.018667
      py      :     0.036576
 14 Cls       :     5.940885  s :     5.940885
      pz      :     3.928366  p :    11.098598
      px      :     3.502628
      py      :     3.667604
      dz2     :     0.005592  d :     0.037838
      dxz     :     0.005750
      dyz     :     0.003690
      dx2y2   :     0.005612
      dxy     :     0.017194
 15 H s       :     0.938627  s :     0.938627
      pz      :     0.004336  p :     0.023221
      px      :     0.003252
      py      :     0.015634
 16 H s       :     0.935019  s :     0.935019
      pz      :     0.004421  p :     0.022823
      px      :     0.013762
      py      :     0.004641


                     *******************************
                     * LOEWDIN POPULATION ANALYSIS *
                     *******************************

----------------------
LOEWDIN ATOMIC CHARGES
----------------------
   0 C :   -0.032509
   1 C :   -0.022345
   2 C :   -0.141931
   3 C :   -0.195702
   4 C :   -0.066535
   5 C :    0.054668
   6 O :   -0.038783
   7 H :    0.099772
   8 H :    0.044595
   9 S :    1.199899
  10 O :   -0.483730
  11 O :   -0.477024
  12 O :   -0.235208
  13 H :    0.063074
  14 Cl:    0.136742
  15 H :    0.046236
  16 H :    0.048781

-------------------------------
LOEWDIN REDUCED ORBITAL CHARGES
-------------------------------
  0 C s       :     2.859742  s :     2.859742
      pz      :     0.988636  p :     3.086637
      px      :     1.051981
      py      :     1.046020
      dz2     :     0.006392  d :     0.086130
      dxz     :     0.006066
      dyz     :     0.011249
      dx2y2   :     0.034556
      dxy     :     0.027867
  1 C s       :     2.860694  s :     2.860694
      pz      :     0.958810  p :     3.070043
      px      :     1.058919
      py      :     1.052314
      dz2     :     0.006506  d :     0.091608
      dxz     :     0.016423
      dyz     :     0.004645
      dx2y2   :     0.034921
      dxy     :     0.029113
  2 C s       :     2.894962  s :     2.894962
      pz      :     1.068227  p :     3.123501
      px      :     1.008564
      py      :     1.046710
      dz2     :     0.008373  d :     0.123467
      dxz     :     0.014472
      dyz     :     0.015837
      dx2y2   :     0.041445
      dxy     :     0.043340
  3 C s       :     2.910130  s :     2.910130
      pz      :     1.053151  p :     3.184395
      px      :     1.044551
      py      :     1.086692
      dz2     :     0.008276  d :     0.101177
      dxz     :     0.007658
      dyz     :     0.016695
      dx2y2   :     0.034863
      dxy     :     0.033685
  4 C s       :     2.860970  s :     2.860970
      pz      :     1.011947  p :     3.117642
      px      :     1.050203
      py      :     1.055493
      dz2     :     0.006789  d :     0.087923
      dxz     :     0.014228
      dyz     :     0.004613
      dx2y2   :     0.032341
      dxy     :     0.029952
  5 C s       :     2.833064  s :     2.833064
      pz      :     0.938694  p :     2.933163
      px      :     0.965356
      py      :     1.029113
      dz2     :     0.011553  d :     0.179104
      dxz     :     0.030147
      dyz     :     0.021028
      dx2y2   :     0.057818
      dxy     :     0.058559
  6 O s       :     3.400370  s :     3.400370
      pz      :     1.783244  p :     4.610589
      px      :     1.553042
      py      :     1.274303
      dz2     :     0.004155  d :     0.027823
      dxz     :     0.003125
      dyz     :     0.000972
      dx2y2   :     0.009917
      dxy     :     0.009655
  7 H s       :     0.722150  s :     0.722150
      pz      :     0.049293  p :     0.178078
      px      :     0.040735
      py      :     0.088051
  8 H s       :     0.881797  s :     0.881797
      pz      :     0.014967  p :     0.073608
      px      :     0.013164
      py      :     0.045476
  9 S s       :     5.019023  s :     5.019023
      pz      :     2.880395  p :     8.747519
      px      :     2.948510
      py      :     2.918614
      dz2     :     0.221655  d :     1.033559
      dxz     :     0.175197
      dyz     :     0.228577
      dx2y2   :     0.192462
      dxy     :     0.215667
 10 O s       :     3.677735  s :     3.677735
      pz      :     1.507212  p :     4.775521
      px      :     1.622139
      py      :     1.646170
      dz2     :     0.007851  d :     0.030474
      dxz     :     0.009604
      dyz     :     0.007196
      dx2y2   :     0.002434
      dxy     :     0.003390
 11 O s       :     3.669999  s :     3.669999
      pz      :     1.679900  p :     4.776719
      px      :     1.678474
      py      :     1.418345
      dz2     :     0.004303  d :     0.030306
      dxz     :     0.000277
      dyz     :     0.006720
      dx2y2   :     0.012371
      dxy     :     0.006635
 12 O s       :     3.514887  s :     3.514887
      pz      :     1.561675  p :     4.696567
      px      :     1.694672
      py      :     1.440221
      dz2     :     0.007375  d :     0.023754
      dxz     :     0.005401
      dyz     :     0.004662
      dx2y2   :     0.004433
      dxy     :     0.001883
 13 H s       :     0.750132  s :     0.750132
      pz      :     0.039049  p :     0.186793
      px      :     0.051742
      py      :     0.096003
 14 Cls       :     5.750425  s :     5.750425
      pz      :     3.909562  p :    11.069212
      px      :     3.505170
      py      :     3.654480
      dz2     :     0.006400  d :     0.043621
      dxz     :     0.006497
      dyz     :     0.004053
      dx2y2   :     0.006398
      dxy     :     0.020273
 15 H s       :     0.885746  s :     0.885746
      pz      :     0.013421  p :     0.068018
      px      :     0.010466
      py      :     0.044131
 16 H s       :     0.882220  s :     0.882220
      pz      :     0.014359  p :     0.069000
      px      :     0.039301
      py      :     0.015340


                      *****************************
                      * MAYER POPULATION ANALYSIS *
                      *****************************

  NA   - Mulliken gross atomic population
  ZA   - Total nuclear charge
  QA   - Mulliken gross atomic charge
  VA   - Mayer's total valence
  BVA  - Mayer's bonded valence
  FA   - Mayer's free valence

  ATOM       NA         ZA         QA         VA         BVA        FA
  0 C      6.0390     6.0000    -0.0390     3.8454     3.8454     0.0000
  1 C      5.9982     6.0000     0.0018     3.9479     3.9479    -0.0000
  2 C      5.9565     6.0000     0.0435     3.9766     3.9766     0.0000
  3 C      6.1312     6.0000    -0.1312     4.0175     4.0175     0.0000
  4 C      6.0805     6.0000    -0.0805     3.9072     3.9072    -0.0000
  5 C      5.8206     6.0000     0.1794     3.9883     3.9883     0.0000
  6 O      8.1926     8.0000    -0.1926     2.2461     2.2461     0.0000
  7 H      0.8069     1.0000     0.1931     1.0049     1.0049     0.0000
  8 H      0.9587     1.0000     0.0413     1.0307     1.0307     0.0000
  9 S     15.0172    16.0000     0.9828     5.4875     5.4875    -0.0000
 10 O      8.4312     8.0000    -0.4312     1.9840     1.9840     0.0000
 11 O      8.4390     8.0000    -0.4390     2.0154     2.0154    -0.0000
 12 O      8.3367     8.0000    -0.3367     2.0533     2.0533    -0.0000
 13 H      0.7947     1.0000     0.2053     1.0382     1.0382    -0.0000
 14 Cl    17.0773    17.0000    -0.0773     1.1761     1.1761     0.0000
 15 H      0.9618     1.0000     0.0382     1.0015     1.0015     0.0000
 16 H      0.9578     1.0000     0.0422     0.9982     0.9982    -0.0000

  Mayer bond orders larger than 0.100000
B(  0-C ,  1-C ) :   1.3988 B(  0-C ,  5-C ) :   1.3542 B(  0-C , 16-H ) :   0.9922 
B(  1-C ,  2-C ) :   1.4067 B(  1-C , 15-H ) :   0.9890 B(  2-C ,  3-C ) :   1.4281 
B(  2-C , 14-Cl) :   1.0082 B(  3-C ,  4-C ) :   1.4261 B(  3-C ,  9-S ) :   0.8447 
B(  4-C ,  5-C ) :   1.3059 B(  4-C ,  8-H ) :   0.9764 B(  5-C ,  6-O ) :   1.2065 
B(  6-O ,  7-H ) :   0.9604 B(  9-S , 10-O ) :   1.7841 B(  9-S , 11-O ) :   1.7858 
B(  9-S , 12-O ) :   0.9826 B( 12-O , 13-H ) :   0.9281 

-------
TIMINGS
-------

Total SCF time: 0 days 0 hours 0 min 39 sec 

Total time                  ....      39.679 sec
Sum of individual times     ....      39.484 sec  ( 99.5%)

Fock matrix formation       ....      38.266 sec  ( 96.4%)
  XC integration            ....       2.221 sec  (  5.8% of F)
    Basis function eval.    ....       0.680 sec  ( 30.6% of XC)
    Density eval.           ....       0.400 sec  ( 18.0% of XC)
    XC-Functional eval.     ....       0.574 sec  ( 25.9% of XC)
    XC-Potential eval.      ....       0.499 sec  ( 22.5% of XC)
Diagonalization             ....       0.005 sec  (  0.0%)
Density matrix formation    ....       0.004 sec  (  0.0%)
Population analysis         ....       0.005 sec  (  0.0%)
Initial guess               ....       0.005 sec  (  0.0%)
Orbital Transformation      ....       0.000 sec  (  0.0%)
Orbital Orthonormalization  ....       0.003 sec  (  0.0%)
DIIS solution               ....       0.001 sec  (  0.0%)
SOSCF solution              ....       0.012 sec  (  0.0%)
Grid generation             ....       1.186 sec  (  3.0%)


-------------------------------------------------------------------------------
                          DFT DISPERSION CORRECTION                            
                                                                               
                              DFTD3 V3.1  Rev 1                                
                              USING zero damping                               
-------------------------------------------------------------------------------
The omegaB97X-D3 functional is recognized. Fit by Chai et al.
Active option DFTDOPT                   ...         3   

molecular C6(AA) [au] = 5286.539131 


            DFT-D V3
 parameters
 s6 scaling factor         :     1.0000 
 rs6 scaling factor        :     1.2810 
 s8 scaling factor         :     1.0000 
 rs8 scaling factor        :     1.0940 
 Damping factor alpha6     :    14.0000 
 Damping factor alpha8     :    16.0000 
 ad hoc parameters k1-k3   :    16.0000     1.3333    -4.0000 

 Edisp/kcal,au: -4.373309251014  -0.006969311166 
 E6   /kcal   :  -1.696204808 
 E8   /kcal   :  -2.677104443 
 % E8         :  61.214615500 

-------------------------   ----------------
Dispersion correction           -0.006969311
-------------------------   ----------------


-------------------------   --------------------
FINAL SINGLE POINT ENERGY     -1390.041822431621
-------------------------   --------------------

                                *** OPTIMIZATION RUN DONE ***

                            ***************************************
                            *     ORCA property calculations      *
                            ***************************************

                                    ---------------------
                                    Active property flags
                                    ---------------------
   (+) Dipole Moment


------------------------------------------------------------------------------
                       ORCA ELECTRIC PROPERTIES CALCULATION
------------------------------------------------------------------------------

Dipole Moment Calculation                       ... on
Quadrupole Moment Calculation                   ... off
Polarizability Calculation                      ... off
GBWName                                         ... 014006941.gbw
Electron density file                           ... 014006941.scfp
The origin for moment calculation is the CENTER OF MASS  = ( 0.010513,  0.003988 -0.028200)

-------------
DIPOLE MOMENT
-------------
                                X             Y             Z
Electronic contribution:      7.16450      -3.55605       0.45445
Nuclear contribution   :     -8.51575       2.84735      -0.89379
                        -----------------------------------------
Total Dipole Moment    :     -1.35125      -0.70871      -0.43934
                        -----------------------------------------
Magnitude (a.u.)       :      1.58782
Magnitude (Debye)      :      4.03591



--------------------
Rotational spectrum 
--------------------
 
Rotational constants in cm-1:     0.034549     0.021090     0.014222 
Rotational constants in MHz :  1035.745045   632.262426   426.360066 

 Dipole components along the rotational axes: 
x,y,z [a.u.] :    -1.353441    -0.704787    -0.438909 
x,y,z [Debye]:    -3.440172    -1.791425    -1.115617 

 

Timings for individual modules:

Sum of individual times         ...      981.372 sec (=  16.356 min)
GTO integral calculation        ...        2.279 sec (=   0.038 min)   0.2 %
SCF iterations                  ...      647.024 sec (=  10.784 min)  65.9 %
SCF Gradient evaluation         ...      331.581 sec (=   5.526 min)  33.8 %
Geometry relaxation             ...        0.489 sec (=   0.008 min)   0.0 %
                             ****ORCA TERMINATED NORMALLY****
TOTAL RUN TIME: 0 days 0 hours 16 minutes 22 seconds 402 msec
