
                                 *****************
                                 * O   R   C   A *
                                 *****************

           --- An Ab Initio, DFT and Semiempirical electronic structure package ---

                  #######################################################
                  #                        -***-                        #
                  #          Department of theory and spectroscopy      #
                  #               Directorship: Frank Neese             #
                  #        Max Planck Institute fuer Kohlenforschung    #
                  #                Kaiser Wilhelm Platz 1               #
                  #                 D-45470 Muelheim/Ruhr               #
                  #                      Germany                        #
                  #                                                     #
                  #                  All rights reserved                #
                  #                        -***-                        #
                  #######################################################


                         Program Version 4.2.0 -  RELEASE  -


 With contributions from (in alphabetic order):
   Daniel Aravena         : Magnetic Suceptibility
   Michael Atanasov       : Ab Initio Ligand Field Theory (pilot matlab implementation)
   Alexander A. Auer      : GIAO ZORA, VPT2
   Ute Becker             : Parallelization
   Giovanni Bistoni       : ED, misc. LED, open-shell LED, HFLED
   Martin Brehm           : Molecular dynamics
   Dmytro Bykov           : SCF Hessian
   Vijay G. Chilkuri      : MRCI spin determinant printing, contributions to CSF-ICE
   Dipayan Datta          : RHF DLPNO-CCSD density
   Achintya Kumar Dutta   : EOM-CC, STEOM-CC
   Dmitry Ganyushin       : Spin-Orbit,Spin-Spin,Magnetic field MRCI
   Miquel Garcia          : C-PCM Hessian, Gaussian charge scheme
   Yang Guo               : DLPNO-NEVPT2, CIM, IAO-localization
   Andreas Hansen         : Spin unrestricted coupled pair/coupled cluster methods
   Benjamin Helmich-Paris : CASSCF linear response (MC-RPA)
   Lee Huntington         : MR-EOM, pCC
   Robert Izsak           : Overlap fitted RIJCOSX, COSX-SCS-MP3, EOM
   Christian Kollmar      : KDIIS, OOCD, Brueckner-CCSD(T), CCSD density
   Simone Kossmann        : Meta GGA functionals, TD-DFT gradient, OOMP2, MP2 Hessian
   Martin Krupicka        : AUTO-CI
   Lucas Lang             : DCDCAS
   Dagmar Lenk            : GEPOL surface, SMD
   Dimitrios Liakos       : Extrapolation schemes; Compound Job, initial MDCI parallelization
   Dimitrios Manganas     : Further ROCIS development; embedding schemes
   Dimitrios Pantazis     : SARC Basis sets
   Taras Petrenko         : DFT Hessian,TD-DFT gradient, ASA, ECA, R-Raman, ABS, FL, XAS/XES, NRVS
   Peter Pinski           : DLPNO-MP2, DLPNO-MP2 Gradient
   Christoph Reimann      : Effective Core Potentials
   Marius Retegan         : Local ZFS, SOC
   Christoph Riplinger    : Optimizer, TS searches, QM/MM, DLPNO-CCSD(T), (RO)-DLPNO pert. Triples
   Tobias Risthaus        : Range-separated hybrids, TD-DFT gradient, RPA, STAB
   Michael Roemelt        : Original ROCIS implementation
   Masaaki Saitow         : Open-shell DLPNO-CCSD energy and density
   Barbara Sandhoefer     : DKH picture change effects
   Avijit Sen             : IP-ROCIS
   Kantharuban Sivalingam : CASSCF convergence, NEVPT2, FIC-MRCI
   Bernardo de Souza      : ESD, SOC TD-DFT
   Georgi Stoychev        : AutoAux, RI-MP2 NMR
   Willem Van den Heuvel  : Paramagnetic NMR
   Boris Wezisla          : Elementary symmetry handling
   Frank Wennmohs         : Technical directorship


 We gratefully acknowledge several colleagues who have allowed us to
 interface, adapt or use parts of their codes:
   Stefan Grimme, W. Hujo, H. Kruse,             : VdW corrections, initial TS optimization,
                  C. Bannwarth                     DFT functionals, gCP, sTDA/sTD-DF
   Ed Valeev, F. Pavosevic, A. Kumar             : LibInt (2-el integral package), F12 methods
   Garnet Chan, S. Sharma, J. Yang, R. Olivares  : DMRG
   Ulf Ekstrom                                   : XCFun DFT Library
   Mihaly Kallay                                 : mrcc  (arbitrary order and MRCC methods)
   Andreas Klamt, Michael Diedenhofen            : otool_cosmo (COSMO solvation model)
   Jiri Pittner, Ondrej Demel                    : Mk-CCSD
   Frank Weinhold                                : gennbo (NPA and NBO analysis)
   Christopher J. Cramer and Donald G. Truhlar   : smd solvation model
   Lars Goerigk                                  : TD-DFT with DH, B97 family of functionals
   V. Asgeirsson, H. Jonsson                     : NEB implementation
   FAccTs GmbH                                   : IRC, NEB, NEB-TS, Multilevel, MM, QM/MM, CI optimization
   S Lehtola, MJT Oliveira, MAL Marques          : LibXC Library


 Your calculation uses the libint2 library for the computation of 2-el integrals
 For citations please refer to: http://libint.valeyev.net

 Your ORCA version has been built with support for libXC version: 4.2.3
 For citations please refer to: https://tddft.org/programs/libxc/

 This ORCA versions uses:
   CBLAS   interface :  Fast vector & matrix operations
   LAPACKE interface :  Fast linear algebra routines
   SCALAPACK package :  Parallel linear algebra routines


Your calculation utilizes the atom-pairwise dispersion correction
with the zero-damping scheme (D30)
Cite in your paper:
S.Grimme, J.Antony, S.Ehrlich and H.Krieg, J.Chem.Phys., 132, (2010), 154104 
   

XCFun DFT library Copyright 2009-2010 Ulf Ekstrom and contributors.
See http://admol.org/xcfun for more information. This is free soft-
ware; see the source code for copying conditions. There is ABSOLUTELY
NO WARRANTY; not even for MERCHANTABILITY or FITNESS FOR A PARTICULAR
PURPOSE. For details see the documentation. Scientific users of this 
library should cite U. Ekstrom, L. Visscher, R. Bast, A. J. Thorvald-
sen and K. Ruud; J.Chem.Theor.Comp. 2010, DOI: 10.1021/ct100117s
XCFun Version 0.99 
----- Orbital basis set information -----
Your calculation utilizes the basis: def2-SVP
   F. Weigend and R. Ahlrichs, Phys. Chem. Chem. Phys. 7, 3297 (2005).

================================================================================
                                        WARNINGS
                       Please study these warnings very carefully!
================================================================================


WARNING: your system is open-shell and RHF/RKS was chosen
  ===> : WILL SWITCH to UHF/UKS


WARNING: Geometry Optimization
  ===> : Switching off AutoStart
         For restart on a previous wavefunction, please use MOREAD

INFO   : the flag for use of LIBINT has been found!

================================================================================
                                       INPUT FILE
================================================================================
NAME = 026338816.inp
|  1> # ORCA input file
|  2> # -34.20554357
|  3> ! wB97X-D3 def2-SVP Opt
|  4> * xyz 0 2
|  5>    C        0.29270         2.26750        -0.00020
|  6>    C        0.99520         0.97310         0.00010
|  7>    N        2.31490         0.90860         0.00010
|  8>    C        2.98800        -0.21990         0.00010
|  9>    C        2.37250        -1.45890        -0.00000
| 10>    C        0.97680        -1.45240        -0.00010
| 11>    C        0.33380        -0.24890         0.00000
| 12>    S       -1.54230        -0.18080         0.00000
| 13>    O       -1.85480        -1.58430         0.00030
| 14>    O       -1.77030         0.53740        -1.22890
| 15>    O       -1.77030         0.53800         1.22860
| 16>    H        0.40510        -2.36760        -0.00020
| 17>    H        2.93650        -2.37730        -0.00010
| 18>    H        4.06520        -0.11940         0.00010
| 19>    H        1.00060         3.09100         0.00010
| 20>    H       -0.35960         2.31830         0.87150
| 21>    H       -0.35890         2.31840        -0.87230
| 22> *
| 23> 
| 24>                          ****END OF INPUT****
================================================================================

                       *****************************
                       * Geometry Optimization Run *
                       *****************************

Geometry optimization settings:
Update method            Update   .... BFGS
Choice of coordinates    CoordSys .... Z-matrix Internals
Initial Hessian          InHess   .... Almoef's Model

Convergence Tolerances:
Energy Change            TolE     ....  5.0000e-06 Eh
Max. Gradient            TolMAXG  ....  3.0000e-04 Eh/bohr
RMS Gradient             TolRMSG  ....  1.0000e-04 Eh/bohr
Max. Displacement        TolMAXD  ....  4.0000e-03 bohr
RMS Displacement         TolRMSD  ....  2.0000e-03 bohr
Strict Convergence                ....  False
------------------------------------------------------------------------------
                        ORCA OPTIMIZATION COORDINATE SETUP
------------------------------------------------------------------------------

The optimization will be done in new redundant internal coordinates
Making redundant internal coordinates   ...  (new redundants) done
Evaluating the initial hessian          ...  (Almloef) done
Evaluating the coordinates              ...  done
Calculating the B-matrix                .... done
Calculating the G-matrix                .... done
Diagonalizing the G-matrix              .... done
Small eigenvalue found = 2.866e-02
The first mode is                       ....   32
The number of degrees of freedom        ....   45

    -----------------------------------------------------------------
                    Redundant Internal Coordinates


    -----------------------------------------------------------------
         Definition                    Initial Value    Approx d2E/dq
    -----------------------------------------------------------------
      1. B(C   1,C   0)                  1.4727         0.461025   
      2. B(N   2,C   1)                  1.3213         0.720313   
      3. B(C   3,N   2)                  1.3140         0.739845   
      4. B(C   4,C   3)                  1.3835         0.639990   
      5. B(C   5,C   4)                  1.3957         0.611815   
      6. B(C   6,C   5)                  1.3645         0.686154   
      7. B(C   6,C   1)                  1.3895         0.625926   
      8. B(S   7,C   6)                  1.8773         0.281186   
      9. B(O   8,S   7)                  1.4379         1.265525   
     10. B(O   9,S   7)                  1.4415         1.248649   
     11. B(O  10,S   7)                  1.4416         1.248451   
     12. B(H  11,C   5)                  1.0791         0.374828   
     13. B(H  12,C   4)                  1.0778         0.376669   
     14. B(H  13,C   3)                  1.0819         0.371006   
     15. B(H  14,C   0)                  1.0859         0.365506   
     16. B(H  15,C   0)                  1.0899         0.360199   
     17. B(H  16,C   0)                  1.0898         0.360324   
     18. A(C   1,C   0,H  16)          109.0508         0.335827   
     19. A(H  14,C   0,H  16)          110.7661         0.291550   
     20. A(C   1,C   0,H  14)          110.8272         0.336626   
     21. A(H  14,C   0,H  15)          110.7671         0.291534   
     22. A(H  15,C   0,H  16)          106.2598         0.290880   
     23. A(C   1,C   0,H  15)          109.0430         0.335808   
     24. A(N   2,C   1,C   6)          115.6261         0.443805   
     25. A(C   0,C   1,C   6)          123.0861         0.412381   
     26. A(C   0,C   1,N   2)          121.2878         0.420080   
     27. A(C   1,N   2,C   3)          123.6123         0.454458   
     28. A(N   2,C   3,C   4)          122.7689         0.447760   
     29. A(C   4,C   3,H  13)          121.7470         0.356612   
     30. A(N   2,C   3,H  13)          115.4841         0.363265   
     31. A(C   5,C   4,H  12)          121.8214         0.354809   
     32. A(C   3,C   4,H  12)          122.0286         0.357532   
     33. A(C   3,C   4,C   5)          116.1500         0.435509   
     34. A(C   4,C   5,C   6)          118.3813         0.441015   
     35. A(C   6,C   5,H  11)          119.8936         0.361496   
     36. A(C   4,C   5,H  11)          121.7250         0.354514   
     37. A(C   5,C   6,S   7)          120.1933         0.404944   
     38. A(C   1,C   6,S   7)          116.3453         0.398442   
     39. A(C   1,C   6,C   5)          123.4613         0.442837   
     40. A(O   8,S   7,O  10)          116.8819         0.625632   
     41. A(C   6,S   7,O  10)          100.1453         0.473472   
     42. A(O   8,S   7,O   9)          116.8796         0.625652   
     43. A(C   6,S   7,O   9)          100.1447         0.473485   
     44. A(C   6,S   7,O   8)          100.4737         0.474655   
     45. A(O   9,S   7,O  10)          116.9438         0.624004   
     46. D(C   6,C   1,C   0,H  14)    179.9912         0.015670   
     47. D(C   6,C   1,C   0,H  15)     57.8082         0.015670   
     48. D(N   2,C   1,C   0,H  14)     -0.0285         0.015670   
     49. D(N   2,C   1,C   0,H  15)   -122.2114         0.015670   
     50. D(C   6,C   1,C   0,H  16)    -57.8219         0.015670   
     51. D(N   2,C   1,C   0,H  16)    122.1585         0.015670   
     52. D(C   3,N   2,C   1,C   0)   -179.9863         0.039075   
     53. D(C   3,N   2,C   1,C   6)     -0.0046         0.039075   
     54. D(H  13,C   3,N   2,C   1)    180.0000         0.041451   
     55. D(C   4,C   3,N   2,C   1)      0.0049         0.041451   
     56. D(H  12,C   4,C   3,H  13)     -0.0011         0.028457   
     57. D(C   5,C   4,C   3,H  13)   -179.9949         0.028457   
     58. D(C   5,C   4,C   3,N   2)     -0.0001         0.028457   
     59. D(H  12,C   4,C   3,N   2)    179.9937         0.028457   
     60. D(C   6,C   5,C   4,C   3)     -0.0044         0.025861   
     61. D(H  11,C   5,C   4,H  12)      0.0051         0.025861   
     62. D(H  11,C   5,C   4,C   3)    179.9989         0.025861   
     63. D(C   6,C   5,C   4,H  12)   -179.9982         0.025861   
     64. D(S   7,C   6,C   5,H  11)      0.0013         0.033050   
     65. D(S   7,C   6,C   5,C   4)   -179.9955         0.033050   
     66. D(C   1,C   6,C   5,H  11)   -179.9985         0.033050   
     67. D(C   1,C   6,C   5,C   4)      0.0048         0.033050   
     68. D(S   7,C   6,C   1,N   2)    179.9999         0.027142   
     69. D(S   7,C   6,C   1,C   0)     -0.0187         0.027142   
     70. D(C   5,C   6,C   1,N   2)     -0.0003         0.027142   
     71. D(C   5,C   6,C   1,C   0)    179.9811         0.027142   
     72. D(O   9,S   7,C   6,C   5)   -119.9934         0.002862   
     73. D(O   9,S   7,C   6,C   1)     60.0063         0.002862   
     74. D(O   8,S   7,C   6,C   5)      0.0170         0.002862   
     75. D(O  10,S   7,C   6,C   1)    -59.9701         0.002862   
     76. D(O   8,S   7,C   6,C   1)   -179.9832         0.002862   
     77. D(O  10,S   7,C   6,C   5)    120.0302         0.002862   
    -----------------------------------------------------------------

Number of atoms                         .... 17
Number of degrees of freedom            .... 77

         *************************************************************
         *                GEOMETRY OPTIMIZATION CYCLE   1            *
         *************************************************************
---------------------------------
CARTESIAN COORDINATES (ANGSTROEM)
---------------------------------
  C      0.292700    2.267500   -0.000200
  C      0.995200    0.973100    0.000100
  N      2.314900    0.908600    0.000100
  C      2.988000   -0.219900    0.000100
  C      2.372500   -1.458900   -0.000000
  C      0.976800   -1.452400   -0.000100
  C      0.333800   -0.248900    0.000000
  S     -1.542300   -0.180800    0.000000
  O     -1.854800   -1.584300    0.000300
  O     -1.770300    0.537400   -1.228900
  O     -1.770300    0.538000    1.228600
  H      0.405100   -2.367600   -0.000200
  H      2.936500   -2.377300   -0.000100
  H      4.065200   -0.119400    0.000100
  H      1.000600    3.091000    0.000100
  H     -0.359600    2.318300    0.871500
  H     -0.358900    2.318400   -0.872300

----------------------------
CARTESIAN COORDINATES (A.U.)
----------------------------
  NO LB      ZA    FRAG     MASS         X           Y           Z
   0 C     6.0000    0    12.011    0.553123    4.284954   -0.000378
   1 C     6.0000    0    12.011    1.880655    1.838893    0.000189
   2 N     7.0000    0    14.007    4.374527    1.717005    0.000189
   3 C     6.0000    0    12.011    5.646502   -0.415551    0.000189
   4 C     6.0000    0    12.011    4.483375   -2.756921   -0.000000
   5 C     6.0000    0    12.011    1.845884   -2.744638   -0.000189
   6 C     6.0000    0    12.011    0.630791   -0.470353    0.000000
   7 S    16.0000    0    32.060   -2.914525   -0.341662    0.000000
   8 O     8.0000    0    15.999   -3.505064   -2.993893    0.000567
   9 O     8.0000    0    15.999   -3.345382    1.015539   -2.322284
  10 O     8.0000    0    15.999   -3.345382    1.016673    2.321718
  11 H     1.0000    0     1.008    0.765528   -4.474116   -0.000378
  12 H     1.0000    0     1.008    5.549181   -4.492446   -0.000189
  13 H     1.0000    0     1.008    7.682115   -0.225633    0.000189
  14 H     1.0000    0     1.008    1.890860    5.841143    0.000189
  15 H     1.0000    0     1.008   -0.679546    4.380952    1.646896
  16 H     1.0000    0     1.008   -0.678223    4.381141   -1.648408

--------------------------------
INTERNAL COORDINATES (ANGSTROEM)
--------------------------------
 C      0   0   0     0.000000000000     0.00000000     0.00000000
 C      1   0   0     1.472744954159     0.00000000     0.00000000
 N      2   1   0     1.321275270335   121.28776891     0.00000000
 C      3   2   1     1.313992336355   123.61228470   180.01365743
 C      4   3   2     1.383459887384   122.76892447     0.00000000
 C      5   4   3     1.395715139274   116.15004718     0.00000000
 C      6   5   4     1.364500370099   118.38131049     0.00000000
 S      7   6   5     1.877335564038   120.19332703   180.00449135
 O      8   7   6     1.437869462086   100.47372909     0.00000000
 O      8   7   6     1.441523655720   100.14470457   240.00657454
 O      8   7   6     1.441566994628   100.14527515   120.03016485
 H      6   5   4     1.079088476447   121.72504194   179.99889369
 H      5   4   3     1.077754410801   122.02855533   179.99365421
 H      4   3   2     1.081878038413   115.48407471   180.00000121
 H      1   2   3     1.085944174440   110.82718548   359.97153242
 H      1   2   3     1.089925144219   109.04299253   237.78855814
 H      1   2   3     1.089831078654   109.05077326   122.15849545

---------------------------
INTERNAL COORDINATES (A.U.)
---------------------------
 C      0   0   0     0.000000000000     0.00000000     0.00000000
 C      1   0   0     2.783084628474     0.00000000     0.00000000
 N      2   1   0     2.496848408457   121.28776891     0.00000000
 C      3   2   1     2.483085657783   123.61228470   180.01365743
 C      4   3   2     2.614360304421   122.76892447     0.00000000
 C      5   4   3     2.637519374197   116.15004718     0.00000000
 C      6   5   4     2.578532009121   118.38131049     0.00000000
 S      7   6   5     3.547650077501   120.19332703   180.00449135
 O      8   7   6     2.717179499672   100.47372909     0.00000000
 O      8   7   6     2.724084924880   100.14470457   240.00657454
 O      8   7   6     2.724166823546   100.14527515   120.03016485
 H      6   5   4     2.039181694755   121.72504194   179.99889369
 H      5   4   3     2.036660676039   122.02855533   179.99365421
 H      4   3   2     2.044453202904   115.48407471   180.00000121
 H      1   2   3     2.052137086419   110.82718548   359.97153242
 H      1   2   3     2.059660029048   109.04299253   237.78855814
 H      1   2   3     2.059482270892   109.05077326   122.15849545

---------------------
BASIS SET INFORMATION
---------------------
There are 5 groups of distinct atoms

 Group   1 Type C   : 7s4p1d contracted to 3s2p1d pattern {511/31/1}
 Group   2 Type N   : 7s4p1d contracted to 3s2p1d pattern {511/31/1}
 Group   3 Type S   : 10s7p1d contracted to 4s3p1d pattern {5311/511/1}
 Group   4 Type O   : 7s4p1d contracted to 3s2p1d pattern {511/31/1}
 Group   5 Type H   : 4s1p contracted to 2s1p pattern {31/1}

Atom   0C    basis set group =>   1
Atom   1C    basis set group =>   1
Atom   2N    basis set group =>   2
Atom   3C    basis set group =>   1
Atom   4C    basis set group =>   1
Atom   5C    basis set group =>   1
Atom   6C    basis set group =>   1
Atom   7S    basis set group =>   3
Atom   8O    basis set group =>   4
Atom   9O    basis set group =>   4
Atom  10O    basis set group =>   4
Atom  11H    basis set group =>   5
Atom  12H    basis set group =>   5
Atom  13H    basis set group =>   5
Atom  14H    basis set group =>   5
Atom  15H    basis set group =>   5
Atom  16H    basis set group =>   5
------------------------------------------------------------------------------
                           ORCA GTO INTEGRAL CALCULATION
------------------------------------------------------------------------------

                         BASIS SET STATISTICS AND STARTUP INFO

 # of primitive gaussian shells          ...  168
 # of primitive gaussian functions       ...  318
 # of contracted shells                  ...   86
 # of contracted basis functions         ...  188
 Highest angular momentum                ...    2
 Maximum contraction depth               ...    5
 Integral package used                   ... LIBINT
 Integral threshhold            Thresh   ...  2.500e-11
 Primitive cut-off              TCut     ...  2.500e-12


------------------------------ INTEGRAL EVALUATION ----------------------------


 * One electron integrals 
 Pre-screening matrix                    ... done
 Shell pair data                         ... done (   0.001 sec)

-------------------------------------------------------------------------------
                                 ORCA SCF
-------------------------------------------------------------------------------

------------
SCF SETTINGS
------------
Hamiltonian:
 Density Functional     Method          .... DFT(GTOs)
 Exchange Functional    Exchange        .... WB97X-D3
 Correlation Functional Correlation     .... WB97X-D3
 Gradients option       PostSCFGGA      .... off
 Hybrid DFT is turned on
   Fraction HF Exchange ScalHFX         ....  0.195728
   Scaling of DF-GGA-X  ScalDFX         ....  0.000000
   Scaling of DF-GGA-C  ScalDFC         ....  1.000000
   Scaling of DF-LDA-C  ScalLDAC        ....  1.000000
   Perturbative correction              ....  0.000000
   Density functional embedding theory  .... OFF
 Long-range corrected/Screened/Range-Separated Hybrid DFT is turned on
   Amount of maximum screened exact exchange              ....  0.804272
   Range separation parameter mu (erf(mu*r12)/r12)        ....  0.250000


General Settings:
 Integral files         IntName         .... 026338816
 Hartree-Fock type      HFTyp           .... UHF
 Total Charge           Charge          ....    0
 Multiplicity           Mult            ....    2
 Number of Electrons    NEL             ....   89
 Basis Dimension        Dim             ....  188
 Nuclear Repulsion      ENuc            ....    749.5622233305 Eh

Convergence Acceleration:
 DIIS                   CNVDIIS         .... on
   Start iteration      DIISMaxIt       ....    12
   Startup error        DIISStart       ....  0.200000
   # of expansion vecs  DIISMaxEq       ....     5
   Bias factor          DIISBfac        ....   1.050
   Max. coefficient     DIISMaxC        ....  10.000
 Newton-Raphson         CNVNR           .... off
 SOSCF                  CNVSOSCF        .... off
 Level Shifting         CNVShift        .... on
   Level shift para.    LevelShift      ....    0.2500
   Turn off err/grad.   ShiftErr        ....    0.0010
 Zerner damping         CNVZerner       .... off
 Static damping         CNVDamp         .... on
   Fraction old density DampFac         ....    0.7000
   Max. Damping (<1)    DampMax         ....    0.9800
   Min. Damping (>=0)   DampMin         ....    0.0000
   Turn off err/grad.   DampErr         ....    0.1000
 Fernandez-Rico         CNVRico         .... off

SCF Procedure:
 Maximum # iterations   MaxIter         ....   125
 SCF integral mode      SCFMode         .... Direct
   Integral package                     .... LIBINT
 Reset frequency        DirectResetFreq ....    20
 Integral Threshold     Thresh          ....  2.500e-11 Eh
 Primitive CutOff       TCut            ....  2.500e-12 Eh

Convergence Tolerance:
 Convergence Check Mode ConvCheckMode   .... Total+1el-Energy
 Convergence forced     ConvForced      .... 0
 Energy Change          TolE            ....  1.000e-08 Eh
 1-El. energy change                    ....  1.000e-05 Eh
 DIIS Error             TolErr          ....  5.000e-07


Diagonalization of the overlap matrix:
Smallest eigenvalue                        ... 5.802e-04
Time for diagonalization                   ...    0.109 sec
Threshold for overlap eigenvalues          ... 1.000e-08
Number of eigenvalues below threshold      ... 0
Time for construction of square roots      ...    0.002 sec
Total time needed                          ...    0.110 sec

-------------------
DFT GRID GENERATION
-------------------

General Integration Accuracy     IntAcc      ...  4.340
Radial Grid Type                 RadialGrid  ... Gauss-Chebyshev
Angular Grid (max. acc.)         AngularGrid ... Lebedev-110
Angular grid pruning method      GridPruning ... 3 (G Style)
Weight generation scheme         WeightScheme... Becke
Basis function cutoff            BFCut       ...    1.0000e-11
Integration weight cutoff        WCut        ...    1.0000e-14
Grids for H and He will be reduced by one unit

# of grid points (after initial pruning)     ...  23356 (   0.0 sec)
# of grid points (after weights+screening)   ...  21540 (   0.0 sec)
nearest neighbour list constructed           ...    0.0 sec
Grid point re-assignment to atoms done       ...    0.0 sec
Grid point division into batches done        ...    0.0 sec
Reduced shell lists constructed in    0.1 sec

Total number of grid points                  ...    21540
Total number of batches                      ...      345
Average number of points per batch           ...       62
Average number of grid points per atom       ...     1267
Average number of shells per batch           ...    56.72 (65.95%)
Average number of basis functions per batch  ...   123.23 (65.55%)
Average number of large shells per batch     ...    43.45 (76.61%)
Average number of large basis fcns per batch ...    92.77 (75.28%)
Maximum spatial batch extension              ...  20.81, 17.67, 25.60 au
Average spatial batch extension              ...   3.49,  3.53,  3.96 au

Time for grid setup =    0.202 sec

------------------------------
INITIAL GUESS: MODEL POTENTIAL
------------------------------
Loading Hartree-Fock densities                     ... done
Calculating cut-offs                               ... done
Setting up the integral package                    ... done
Initializing the effective Hamiltonian             ... done
Starting the Coulomb interaction                   ... done (   0.1 sec)
Reading the grid                                   ... done
Mapping shells                                     ... done
Starting the XC term evaluation                    ... done (   0.2 sec)
  promolecular density results
     # of electrons  =     89.002489056
     EX              =    -88.499033640
     EC              =     -3.114717066
     EX+EC           =    -91.613750705
Transforming the Hamiltonian                       ... done (   0.0 sec)
Diagonalizing the Hamiltonian                      ... done (   0.0 sec)
Back transforming the eigenvectors                 ... done (   0.0 sec)
Now organizing SCF variables                       ... done
                      ------------------
                      INITIAL GUESS DONE (   0.6 sec)
                      ------------------
--------------
SCF ITERATIONS
--------------
ITER       Energy         Delta-E        Max-DP      RMS-DP      [F,P]     Damp
               ***  Starting incremental Fock matrix formation  ***
  0   -909.6321681993   0.000000000000 0.07351724  0.00137359  0.2712403 0.7000
  1   -909.7990780513  -0.166909851936 0.03982463  0.00091841  0.1303771 0.7000
                               ***Turning on DIIS***
  2   -909.8696251952  -0.070547143922 0.04023512  0.00158298  0.0471906 0.0000
  3   -909.9883098341  -0.118684638898 0.03627158  0.00062134  0.0661288 0.0000
  4   -910.0085271845  -0.020217350434 0.00500499  0.00014147  0.0083352 0.0000
  5   -910.0093647242  -0.000837539647 0.00216144  0.00007551  0.0038768 0.0000
  6   -910.0097433649  -0.000378640719 0.00188240  0.00006105  0.0024368 0.0000
  7   -910.0100400523  -0.000296687447 0.00240023  0.00006683  0.0020017 0.0000
  8   -910.0103305512  -0.000290498843 0.00273281  0.00006764  0.0013931 0.0000
  9   -910.0106000050  -0.000269453788 0.00596615  0.00014413  0.0009857 0.0000
 10   -910.0111330412  -0.000533036291 0.00020618  0.00000810  0.0019066 0.0000
 11   -910.0111561043  -0.000023063045 0.00039755  0.00001408  0.0014538 0.0000
 12   -910.0112009096  -0.000044805346 0.00154741  0.00004764  0.0012076 0.0000
 13   -910.0113444673  -0.000143557683 0.00211630  0.00006300  0.0010136 0.0000
 14   -910.0115326889  -0.000188221534 0.00216371  0.00005761  0.0009924 0.0000
 15   -910.0117112288  -0.000178539935 0.00139337  0.00004925  0.0018466 0.0000
 16   -910.0118472551  -0.000136026317 0.00546072  0.00016038  0.0009886 0.0000
 17   -910.0123156732  -0.000468418104 0.00198431  0.00006514  0.0019628 0.0000
 18   -910.0121332866   0.000182386572 0.00050604  0.00001479  0.0030723 0.0000
 19   -910.0121069540   0.000026332612 0.00051851  0.00002170  0.0023579 0.0000
               *** Restarting incremental Fock matrix formation ***
                                   *** Resetting DIIS ***
 20   -910.0121581526  -0.000051198571 0.00102798  0.00003898  0.0015586 0.0000
 21   -910.0122459428  -0.000087790239 0.00107943  0.00002648  0.0011789 0.0000
 22   -910.0123229008  -0.000076957981 0.00113154  0.00003279  0.0010228 0.0000
 23   -910.0124179277  -0.000095026859 0.00124650  0.00003710  0.0010258 0.0000
 24   -910.0125240592  -0.000106131498 0.00129270  0.00003908  0.0010291 0.0000
 25   -910.0126361468  -0.000112087638 0.00040940  0.00001198  0.0010365 0.0000
 26   -910.0126686212  -0.000032474355 0.00072502  0.00002993  0.0011718 0.0000
 27   -910.0125971950   0.000071426145 0.00048808  0.00001989  0.0020128 0.0000
 28   -910.0126501718  -0.000052976819 0.00065534  0.00002211  0.0013928 0.0000
 29   -910.0127110576  -0.000060885776 0.00084513  0.00002800  0.0011994 0.0000
 30   -910.0127886597  -0.000077602068 0.00166066  0.00005817  0.0010161 0.0000
 31   -910.0129423078  -0.000153648150 0.00113938  0.00003420  0.0010806 0.0000
 32   -910.0130444242  -0.000102116388 0.00167228  0.00005386  0.0010440 0.0000
 33   -910.0131938952  -0.000149470996 0.00112521  0.00003214  0.0010829 0.0000
 34   -910.0132916739  -0.000097778717 0.00065618  0.00002547  0.0010577 0.0000
 35   -910.0132482964   0.000043377523 0.00015040  0.00000454  0.0018095 0.0000
 36   -910.0132612851  -0.000012988696 0.00093380  0.00003207  0.0017552 0.0000
 37   -910.0133480318  -0.000086746706 0.00042998  0.00001214  0.0012462 0.0000
 38   -910.0133831885  -0.000035156655 0.00063791  0.00002073  0.0014469 0.0000
 39   -910.0134424782  -0.000059289742 0.00242166  0.00008438  0.0012706 0.0000
               *** Restarting incremental Fock matrix formation ***
                                   *** Resetting DIIS ***
 40   -910.0136539551  -0.000211476886 0.00123971  0.00002989  0.0012138 0.0000
 41   -910.0137471803  -0.000093225200 0.00076448  0.00002098  0.0010242 0.0000
 42   -910.0138122822  -0.000065101881 0.00049635  0.00001325  0.0011769 0.0000
 43   -910.0138518492  -0.000039567015 0.00028466  0.00000728  0.0014021 0.0000
 44   -910.0138715936  -0.000019744389 0.00016069  0.00000410  0.0016093 0.0000
 45   -910.0138814901  -0.000009896478 0.00005641  0.00000237  0.0017513 0.0000
 46   -910.0138807811   0.000000708936 0.00032423  0.00001274  0.0018550 0.0000
 47   -910.0139159562  -0.000035175114 0.00108523  0.00004163  0.0015949 0.0000
 48   -910.0140217135  -0.000105757307 0.00143537  0.00003719  0.0011221 0.0000
 49   -910.0141274327  -0.000105719134 0.00155608  0.00004558  0.0010839 0.0000
 50   -910.0142576583  -0.000130225602 0.00162518  0.00004474  0.0010884 0.0000
 51   -910.0143872322  -0.000129573885 0.00147075  0.00004150  0.0011035 0.0000
 52   -910.0145093475  -0.000122115325 0.00116663  0.00004503  0.0010843 0.0000
 53   -910.0144093962   0.000099951305 0.00136890  0.00004428  0.0020141 0.0000
 54   -910.0145282116  -0.000118815437 0.00022667  0.00000901  0.0013189 0.0000
 55   -910.0145231091   0.000005102564 0.00076971  0.00002405  0.0017934 0.0000
 56   -910.0145910796  -0.000067970552 0.00077882  0.00002284  0.0015474 0.0000
 57   -910.0146564980  -0.000065418363 0.00241478  0.00007948  0.0014473 0.0000
 58   -910.0148593496  -0.000202851645 0.00113952  0.00002645  0.0012241 0.0000
 59   -910.0149431354  -0.000083785758 0.00190099  0.00005395  0.0010366 0.0000
               *** Restarting incremental Fock matrix formation ***
                                   *** Resetting DIIS ***
 60   -910.0150944037  -0.000151268348 0.00119283  0.00003193  0.0011079 0.0000
 61   -910.0151905668  -0.000096163110 0.00119037  0.00003089  0.0011085 0.0000
 62   -910.0152820136  -0.000091446752 0.00081779  0.00001882  0.0010998 0.0000
 63   -910.0153402192  -0.000058205651 0.00062024  0.00002254  0.0010835 0.0000
 64   -910.0152965536   0.000043665670 0.00076771  0.00002207  0.0019339 0.0000
 65   -910.0153575646  -0.000061010986 0.00048381  0.00001182  0.0016827 0.0000
 66   -910.0153912898  -0.000033725199 0.00058157  0.00001524  0.0017593 0.0000
 67   -910.0154354434  -0.000044153677 0.00062924  0.00001811  0.0017162 0.0000
 68   -910.0154875088  -0.000052065384 0.00326027  0.00010213  0.0015735 0.0000
 69   -910.0157333840  -0.000245875228 0.00088888  0.00002196  0.0013722 0.0000
 70   -910.0157867649  -0.000053380863 0.00229596  0.00005888  0.0011250 0.0000
 71   -910.0159471072  -0.000160342268 0.00223556  0.00005255  0.0010885 0.0000
 72   -910.0160954047  -0.000148297563 0.00223046  0.00005276  0.0010859 0.0000
 73   -910.0162442527  -0.000148847974 0.00222860  0.00005057  0.0010976 0.0000
 74   -910.0163873720  -0.000143119320 0.00409032  0.00010470  0.0010750 0.0000
 75   -910.0166444167  -0.000257044622 0.00129877  0.00004530  0.0013814 0.0000
 76   -910.0166084069   0.000036009718 0.00164814  0.00004047  0.0018177 0.0000
 77   -910.0167170427  -0.000108635740 0.00147045  0.00003389  0.0012672 0.0000
 78   -910.0168092265  -0.000092183807 0.00164928  0.00003750  0.0011608 0.0000
 79   -910.0169100086  -0.000100782121 0.00188983  0.00004305  0.0010414 0.0000
               *** Restarting incremental Fock matrix formation ***
                                   *** Resetting DIIS ***
 80   -910.0170239941  -0.000113985482 0.00314765  0.00006446  0.0009556 0.0000
 81   -910.0172058958  -0.000181901711 0.00053878  0.00001955  0.0015266 0.0000
 82   -910.0171577787   0.000048117099 0.00039900  0.00001174  0.0021573 0.0000
 83   -910.0171855463  -0.000027767578 0.00029055  0.00000651  0.0018593 0.0000
 84   -910.0172020747  -0.000016528374 0.00017790  0.00000333  0.0018801 0.0000
 85   -910.0172104648  -0.000008390111 0.00130551  0.00004453  0.0019806 0.0000
 86   -910.0173125581  -0.000102093364 0.00412570  0.00007452  0.0009981 0.0000
 87   -910.0175072145  -0.000194656418 0.00063256  0.00001814  0.0021440 0.0000
 88   -910.0175516382  -0.000044423692 0.00191147  0.00004818  0.0016444 0.0000
 89   -910.0176637427  -0.000112104492 0.01007291  0.00019932  0.0008941 0.0000
 90   -910.0181552103  -0.000491467554 0.00170492  0.00004528  0.0017777 0.0000
 91   -910.0182506210  -0.000095410717 0.01898016  0.00038502  0.0008016 0.0000
 92   -910.0190168349  -0.000766213856 0.00060278  0.00001696  0.0012108 0.0000
 93   -910.0190088932   0.000007941678 0.01303025  0.00028098  0.0008294 0.0000
 94   -910.0193923964  -0.000383503213 0.00190351  0.00005236  0.0012291 0.0000
 95   -910.0193685082   0.000023888156 0.00354911  0.00008717  0.0014708 0.0000
 96   -910.0194524591  -0.000083950864 0.00242680  0.00004784  0.0011699 0.0000
 97   -910.0195012776  -0.000048818547 0.00182066  0.00003422  0.0010817 0.0000
 98   -910.0195390704  -0.000037792741 0.00265927  0.00004561  0.0008800 0.0000
 99   -910.0195853298  -0.000046259378 0.00377772  0.00008163  0.0007458 0.0000
               *** Restarting incremental Fock matrix formation ***
                                   *** Resetting DIIS ***
100   -910.0196391289  -0.000053799174 0.00087527  0.00001153  0.0002437 0.0000
101   -910.0196443765  -0.000005247560 0.00017066  0.00000437  0.0007687 0.0000
102   -910.0196467731  -0.000002396652 0.00050763  0.00000990  0.0002440 0.0000
103   -910.0196516923  -0.000004919189 0.00111215  0.00002215  0.0002437 0.0000
104   -910.0196615095  -0.000009817120 0.00195066  0.00003790  0.0001447 0.0000
105   -910.0196745886  -0.000013079133 0.00192103  0.00003901  0.0001694 0.0000
106   -910.0196832031  -0.000008614471 0.00123227  0.00002513  0.0000570 0.0000
107   -910.0196861918  -0.000002988767 0.00036693  0.00000770  0.0000315 0.0000
108   -910.0196867500  -0.000000558163 0.00045088  0.00001020  0.0000356 0.0000
109   -910.0196871661  -0.000000416060 0.00007479  0.00000193  0.0000219 0.0000
110   -910.0196872745  -0.000000108494 0.00010051  0.00000231  0.0000191 0.0000
111   -910.0196873586  -0.000000084088 0.00010120  0.00000237  0.0000191 0.0000
112   -910.0196874562  -0.000000097575 0.00005224  0.00000105  0.0000200 0.0000
113   -910.0196875094  -0.000000053232 0.00006878  0.00000186  0.0000197 0.0000
114   -910.0196876121  -0.000000102655 0.00001831  0.00000045  0.0000203 0.0000
115   -910.0196876138  -0.000000001716 0.00001212  0.00000026  0.0000203 0.0000
116   -910.0196876212  -0.000000007372 0.00002882  0.00000075  0.0000203 0.0000
117   -910.0196876650  -0.000000043791 0.00000950  0.00000023  0.0000205 0.0000
118   -910.0196876778  -0.000000012787 0.00003580  0.00000092  0.0000206 0.0000
119   -910.0196877321  -0.000000054296 0.00000279  0.00000006  0.0000209 0.0000
               *** Restarting incremental Fock matrix formation ***
                                   *** Resetting DIIS ***
120   -910.0196877361  -0.000000004069 0.00004976  0.00000128  0.0000209 0.0000
121   -910.0196878122  -0.000000076046 0.00002942  0.00000076  0.0000213 0.0000
122   -910.0196878576  -0.000000045385 0.00000390  0.00000010  0.0000216 0.0000
                 **** Energy Check signals convergence ****

               *****************************************************
               *                     SUCCESS                       *
               *           SCF CONVERGED AFTER 123 CYCLES          *
               *****************************************************

Setting up the final grid:

General Integration Accuracy     IntAcc      ...  4.670
Radial Grid Type                 RadialGrid  ... Gauss-Chebyshev
Angular Grid (max. acc.)         AngularGrid ... Lebedev-302
Angular grid pruning method      GridPruning ... 3 (G Style)
Weight generation scheme         WeightScheme... Becke
Basis function cutoff            BFCut       ...    1.0000e-11
Integration weight cutoff        WCut        ...    1.0000e-14
Grids for H and He will be reduced by one unit

# of grid points (after initial pruning)     ...  89330 (   0.0 sec)
# of grid points (after weights+screening)   ...  81277 (   0.2 sec)
nearest neighbour list constructed           ...    0.0 sec
Grid point re-assignment to atoms done       ...    0.0 sec
Grid point division into batches done        ...    0.3 sec
Reduced shell lists constructed in    0.7 sec

Total number of grid points                  ...    81277
Total number of batches                      ...     1280
Average number of points per batch           ...       63
Average number of grid points per atom       ...     4781
Average number of shells per batch           ...    51.89 (60.34%)
Average number of basis functions per batch  ...   111.83 (59.48%)
Average number of large shells per batch     ...    38.94 (75.03%)
Average number of large basis fcns per batch ...    82.30 (73.60%)
Maximum spatial batch extension              ...  19.31, 17.88, 25.31 au
Average spatial batch extension              ...   2.39,  2.39,  2.51 au

Final grid set up in    0.9 sec
Final integration                            ... done (   1.6 sec)
Change in XC energy                          ...     0.003105947
Integrated number of electrons               ...    88.999876599
Previous integrated no of electrons          ...    89.002858918

----------------
TOTAL SCF ENERGY
----------------

Total Energy       :         -910.01658192 Eh          -24762.81011 eV

Components:
Nuclear Repulsion  :          749.56222333 Eh           20396.62504 eV
Electronic Energy  :        -1659.57880525 Eh          -45159.43515 eV
One Electron Energy:        -2733.64821019 Eh          -74386.34953 eV
Two Electron Energy:         1074.06940494 Eh           29226.91438 eV

Virial components:
Potential Energy   :        -1815.11839579 Eh          -49391.88258 eV
Kinetic Energy     :          905.10181387 Eh           24629.07247 eV
Virial Ratio       :            2.00543007


DFT components:
N(Alpha)           :       44.999940811790 electrons
N(Beta)            :       43.999935787163 electrons
N(Total)           :       88.999876598953 electrons
E(XC)              :      -65.991242414137 Eh       
DFET-embed. en.    :        0.000000000000 Eh       

---------------
SCF CONVERGENCE
---------------

  Last Energy change         ...   -5.5218e-09  Tolerance :   1.0000e-08
  Last MAX-Density change    ...    7.7208e-06  Tolerance :   1.0000e-07
  Last RMS-Density change    ...    1.9864e-07  Tolerance :   5.0000e-09
  Last DIIS Error            ...    2.1591e-05  Tolerance :   5.0000e-07

             **** THE GBW FILE WAS UPDATED (026338816.gbw) ****
             **** DENSITY FILE WAS UPDATED (026338816.scfp) ****
             **** ENERGY FILE WAS UPDATED (026338816.en.tmp) ****
----------------------
UHF SPIN CONTAMINATION
----------------------

Warning: in a DFT calculation there is little theoretical justification to 
         calculate <S**2> as in Hartree-Fock theory. We will do it anyways
         but you should keep in mind that the values have only limited relevance

Expectation value of <S**2>     :     0.763549
Ideal value S*(S+1) for S=0.5   :     0.750000
Deviation                       :     0.013549

             **** THE GBW FILE WAS UPDATED (026338816.gbw) ****
             **** DENSITY FILE WAS UPDATED (026338816.scfp) ****
----------------
ORBITAL ENERGIES
----------------
                 SPIN UP ORBITALS
  NO   OCC          E(Eh)            E(eV) 
   0   1.0000     -89.218434     -2427.7570 
   1   1.0000     -19.324105      -525.8356 
   2   1.0000     -19.323660      -525.8235 
   3   1.0000     -19.312772      -525.5272 
   4   1.0000     -14.431632      -392.7047 
   5   1.0000     -10.351790      -281.6865 
   6   1.0000     -10.338461      -281.3238 
   7   1.0000     -10.326814      -281.0069 
   8   1.0000     -10.323457      -280.9156 
   9   1.0000     -10.314688      -280.6769 
  10   1.0000     -10.291691      -280.0512 
  11   1.0000      -8.300819      -225.8768 
  12   1.0000      -6.259605      -170.3325 
  13   1.0000      -6.259443      -170.3281 
  14   1.0000      -6.256900      -170.2589 
  15   1.0000      -1.335600       -36.3435 
  16   1.0000      -1.199034       -32.6274 
  17   1.0000      -1.193610       -32.4798 
  18   1.0000      -1.081169       -29.4201 
  19   1.0000      -0.937598       -25.5133 
  20   1.0000      -0.923382       -25.1265 
  21   1.0000      -0.835665       -22.7396 
  22   1.0000      -0.785672       -21.3792 
  23   1.0000      -0.735872       -20.0241 
  24   1.0000      -0.729419       -19.8485 
  25   1.0000      -0.675513       -18.3816 
  26   1.0000      -0.651098       -17.7173 
  27   1.0000      -0.650275       -17.6949 
  28   1.0000      -0.621574       -16.9139 
  29   1.0000      -0.614402       -16.7187 
  30   1.0000      -0.565470       -15.3872 
  31   1.0000      -0.556421       -15.1410 
  32   1.0000      -0.549055       -14.9405 
  33   1.0000      -0.542723       -14.7683 
  34   1.0000      -0.524538       -14.2734 
  35   1.0000      -0.507571       -13.8117 
  36   1.0000      -0.501545       -13.6477 
  37   1.0000      -0.498549       -13.5662 
  38   1.0000      -0.497859       -13.5474 
  39   1.0000      -0.480376       -13.0717 
  40   1.0000      -0.472504       -12.8575 
  41   1.0000      -0.427653       -11.6370 
  42   1.0000      -0.396001       -10.7757 
  43   1.0000      -0.361571        -9.8388 
  44   1.0000      -0.347714        -9.4618 
  45   0.0000       0.038972         1.0605 
  46   0.0000       0.040728         1.1083 
  47   0.0000       0.102011         2.7759 
  48   0.0000       0.147292         4.0080 
  49   0.0000       0.183304         4.9879 
  50   0.0000       0.187638         5.1059 
  51   0.0000       0.198141         5.3917 
  52   0.0000       0.198743         5.4081 
  53   0.0000       0.215432         5.8622 
  54   0.0000       0.230407         6.2697 
  55   0.0000       0.247862         6.7447 
  56   0.0000       0.256908         6.9908 
  57   0.0000       0.280536         7.6338 
  58   0.0000       0.311555         8.4778 
  59   0.0000       0.319205         8.6860 
  60   0.0000       0.364306         9.9133 
  61   0.0000       0.372450        10.1349 
  62   0.0000       0.405398        11.0314 
  63   0.0000       0.427137        11.6230 
  64   0.0000       0.434680        11.8283 
  65   0.0000       0.472998        12.8709 
  66   0.0000       0.494817        13.4647 
  67   0.0000       0.502466        13.6728 
  68   0.0000       0.541518        14.7355 
  69   0.0000       0.541537        14.7360 
  70   0.0000       0.550069        14.9681 
  71   0.0000       0.555970        15.1287 
  72   0.0000       0.605429        16.4746 
  73   0.0000       0.606168        16.4947 
  74   0.0000       0.622459        16.9380 
  75   0.0000       0.640333        17.4244 
  76   0.0000       0.644814        17.5463 
  77   0.0000       0.678788        18.4708 
  78   0.0000       0.698441        19.0055 
  79   0.0000       0.702473        19.1153 
  80   0.0000       0.727041        19.7838 
  81   0.0000       0.738461        20.0945 
  82   0.0000       0.747044        20.3281 
  83   0.0000       0.748438        20.3660 
  84   0.0000       0.768197        20.9037 
  85   0.0000       0.773642        21.0519 
  86   0.0000       0.773860        21.0578 
  87   0.0000       0.787674        21.4337 
  88   0.0000       0.812824        22.1181 
  89   0.0000       0.818519        22.2730 
  90   0.0000       0.822272        22.3752 
  91   0.0000       0.825697        22.4684 
  92   0.0000       0.853576        23.2270 
  93   0.0000       0.865123        23.5412 
  94   0.0000       0.903716        24.5914 
  95   0.0000       0.926289        25.2056 
  96   0.0000       0.944723        25.7072 
  97   0.0000       0.953456        25.9449 
  98   0.0000       0.991176        26.9713 
  99   0.0000       1.013453        27.5775 
 100   0.0000       1.033377        28.1196 
 101   0.0000       1.050591        28.5880 
 102   0.0000       1.063725        28.9454 
 103   0.0000       1.079414        29.3723 
 104   0.0000       1.111160        30.2362 
 105   0.0000       1.128741        30.7146 
 106   0.0000       1.138334        30.9756 
 107   0.0000       1.192650        32.4537 
 108   0.0000       1.224442        33.3188 
 109   0.0000       1.239102        33.7177 
 110   0.0000       1.255518        34.1644 
 111   0.0000       1.262633        34.3580 
 112   0.0000       1.300625        35.3918 
 113   0.0000       1.304550        35.4986 
 114   0.0000       1.308254        35.5994 
 115   0.0000       1.327741        36.1297 
 116   0.0000       1.335142        36.3311 
 117   0.0000       1.375485        37.4288 
 118   0.0000       1.392791        37.8998 
 119   0.0000       1.421304        38.6757 
 120   0.0000       1.423944        38.7475 
 121   0.0000       1.492434        40.6112 
 122   0.0000       1.510478        41.1022 
 123   0.0000       1.569243        42.7013 
 124   0.0000       1.646976        44.8165 
 125   0.0000       1.653915        45.0053 
 126   0.0000       1.674655        45.5697 
 127   0.0000       1.685647        45.8688 
 128   0.0000       1.722437        46.8699 
 129   0.0000       1.806380        49.1541 
 130   0.0000       1.812515        49.3210 
 131   0.0000       1.821095        49.5545 
 132   0.0000       1.836791        49.9816 
 133   0.0000       1.848081        50.2888 
 134   0.0000       1.877279        51.0833 
 135   0.0000       1.899486        51.6876 
 136   0.0000       1.910301        51.9819 
 137   0.0000       1.931687        52.5639 
 138   0.0000       1.971039        53.6347 
 139   0.0000       1.990793        54.1722 
 140   0.0000       2.026417        55.1416 
 141   0.0000       2.036514        55.4164 
 142   0.0000       2.057509        55.9877 
 143   0.0000       2.101946        57.1969 
 144   0.0000       2.114639        57.5423 
 145   0.0000       2.176104        59.2148 
 146   0.0000       2.200188        59.8702 
 147   0.0000       2.283768        62.1445 
 148   0.0000       2.292930        62.3938 
 149   0.0000       2.338331        63.6292 
 150   0.0000       2.355118        64.0860 
 151   0.0000       2.389955        65.0340 
 152   0.0000       2.458510        66.8995 
 153   0.0000       2.470791        67.2337 
 154   0.0000       2.484019        67.5936 
 155   0.0000       2.512358        68.3647 
 156   0.0000       2.561319        69.6970 
 157   0.0000       2.583587        70.3030 
 158   0.0000       2.608080        70.9695 
 159   0.0000       2.625523        71.4441 
 160   0.0000       2.628228        71.5177 
 161   0.0000       2.632763        71.6411 
 162   0.0000       2.644659        71.9648 
 163   0.0000       2.671157        72.6859 
 164   0.0000       2.696443        73.3740 
 165   0.0000       2.717988        73.9602 
 166   0.0000       2.738698        74.5238 
 167   0.0000       2.768225        75.3272 
 168   0.0000       2.817191        76.6597 
 169   0.0000       2.829923        77.0061 
 170   0.0000       2.835760        77.1650 
 171   0.0000       2.840310        77.2888 
 172   0.0000       2.859922        77.8224 
 173   0.0000       2.932012        79.7841 
 174   0.0000       2.994839        81.4937 
 175   0.0000       3.031284        82.4854 
 176   0.0000       3.061293        83.3020 
 177   0.0000       3.067451        83.4696 
 178   0.0000       3.075829        83.6976 
 179   0.0000       3.098369        84.3109 
 180   0.0000       3.110963        84.6536 
 181   0.0000       3.138139        85.3931 
 182   0.0000       3.254009        88.5461 
 183   0.0000       3.289430        89.5100 
 184   0.0000       3.459202        94.1297 
 185   0.0000       3.467739        94.3620 
 186   0.0000       3.498932        95.2108 
 187   0.0000       3.740023       101.7712 

                 SPIN DOWN ORBITALS
  NO   OCC          E(Eh)            E(eV) 
   0   1.0000     -89.218796     -2427.7669 
   1   1.0000     -19.316079      -525.6172 
   2   1.0000     -19.315677      -525.6063 
   3   1.0000     -19.306133      -525.3466 
   4   1.0000     -14.431615      -392.7042 
   5   1.0000     -10.351767      -281.6859 
   6   1.0000     -10.338428      -281.3229 
   7   1.0000     -10.326914      -281.0096 
   8   1.0000     -10.323413      -280.9144 
   9   1.0000     -10.314557      -280.6734 
  10   1.0000     -10.291541      -280.0471 
  11   1.0000      -8.301236      -225.8881 
  12   1.0000      -6.260287      -170.3511 
  13   1.0000      -6.260119      -170.3465 
  14   1.0000      -6.257253      -170.2685 
  15   1.0000      -1.323439       -36.0126 
  16   1.0000      -1.175057       -31.9749 
  17   1.0000      -1.172715       -31.9112 
  18   1.0000      -1.080886       -29.4124 
  19   1.0000      -0.937233       -25.5034 
  20   1.0000      -0.922636       -25.1062 
  21   1.0000      -0.834435       -22.7061 
  22   1.0000      -0.781685       -21.2707 
  23   1.0000      -0.735262       -20.0075 
  24   1.0000      -0.720013       -19.5925 
  25   1.0000      -0.672025       -18.2867 
  26   1.0000      -0.631136       -17.1741 
  27   1.0000      -0.626248       -17.0411 
  28   1.0000      -0.619990       -16.8708 
  29   1.0000      -0.608594       -16.5607 
  30   1.0000      -0.562260       -15.2999 
  31   1.0000      -0.552635       -15.0380 
  32   1.0000      -0.529627       -14.4119 
  33   1.0000      -0.508393       -13.8341 
  34   1.0000      -0.503806       -13.7093 
  35   1.0000      -0.501998       -13.6601 
  36   1.0000      -0.488604       -13.2956 
  37   1.0000      -0.486153       -13.2289 
  38   1.0000      -0.477341       -12.9891 
  39   1.0000      -0.462472       -12.5845 
  40   1.0000      -0.422195       -11.4885 
  41   1.0000      -0.394376       -10.7315 
  42   1.0000      -0.357879        -9.7384 
  43   1.0000      -0.346965        -9.4414 
  44   0.0000      -0.188003        -5.1158 
  45   0.0000       0.041078         1.1178 
  46   0.0000       0.041714         1.1351 
  47   0.0000       0.106329         2.8934 
  48   0.0000       0.148083         4.0295 
  49   0.0000       0.184658         5.0248 
  50   0.0000       0.188232         5.1221 
  51   0.0000       0.202183         5.5017 
  52   0.0000       0.203931         5.5492 
  53   0.0000       0.216566         5.8931 
  54   0.0000       0.231738         6.3059 
  55   0.0000       0.257269         7.0006 
  56   0.0000       0.260316         7.0836 
  57   0.0000       0.294061         8.0018 
  58   0.0000       0.312026         8.4907 
  59   0.0000       0.319483         8.6936 
  60   0.0000       0.364669         9.9232 
  61   0.0000       0.373098        10.1525 
  62   0.0000       0.406638        11.0652 
  63   0.0000       0.427294        11.6272 
  64   0.0000       0.435904        11.8615 
  65   0.0000       0.473831        12.8936 
  66   0.0000       0.495152        13.4738 
  67   0.0000       0.503143        13.6912 
  68   0.0000       0.541812        14.7435 
  69   0.0000       0.541927        14.7466 
  70   0.0000       0.550570        14.9818 
  71   0.0000       0.556634        15.1468 
  72   0.0000       0.606366        16.5001 
  73   0.0000       0.607142        16.5212 
  74   0.0000       0.624016        16.9804 
  75   0.0000       0.641261        17.4496 
  76   0.0000       0.647583        17.6216 
  77   0.0000       0.680352        18.5133 
  78   0.0000       0.699267        19.0280 
  79   0.0000       0.702683        19.1210 
  80   0.0000       0.727138        19.7864 
  81   0.0000       0.739128        20.1127 
  82   0.0000       0.749384        20.3918 
  83   0.0000       0.750224        20.4146 
  84   0.0000       0.768652        20.9161 
  85   0.0000       0.774243        21.0682 
  86   0.0000       0.776638        21.1334 
  87   0.0000       0.787960        21.4415 
  88   0.0000       0.814875        22.1739 
  89   0.0000       0.818633        22.2761 
  90   0.0000       0.822694        22.3866 
  91   0.0000       0.826132        22.4802 
  92   0.0000       0.853865        23.2349 
  93   0.0000       0.866136        23.5688 
  94   0.0000       0.904101        24.6018 
  95   0.0000       0.930074        25.3086 
  96   0.0000       0.950821        25.8732 
  97   0.0000       0.955478        25.9999 
  98   0.0000       0.993163        27.0253 
  99   0.0000       1.017589        27.6900 
 100   0.0000       1.034641        28.1540 
 101   0.0000       1.065209        28.9858 
 102   0.0000       1.070072        29.1181 
 103   0.0000       1.087175        29.5835 
 104   0.0000       1.118569        30.4378 
 105   0.0000       1.139602        31.0101 
 106   0.0000       1.156340        31.4656 
 107   0.0000       1.197398        32.5828 
 108   0.0000       1.225832        33.3566 
 109   0.0000       1.241034        33.7703 
 110   0.0000       1.258540        34.2466 
 111   0.0000       1.265282        34.4301 
 112   0.0000       1.303147        35.4604 
 113   0.0000       1.309678        35.6381 
 114   0.0000       1.311114        35.6772 
 115   0.0000       1.330644        36.2087 
 116   0.0000       1.336171        36.3591 
 117   0.0000       1.378070        37.4992 
 118   0.0000       1.394657        37.9505 
 119   0.0000       1.426583        38.8193 
 120   0.0000       1.432310        38.9751 
 121   0.0000       1.494691        40.6726 
 122   0.0000       1.517324        41.2885 
 123   0.0000       1.570147        42.7259 
 124   0.0000       1.652891        44.9774 
 125   0.0000       1.655293        45.0428 
 126   0.0000       1.676382        45.6167 
 127   0.0000       1.686046        45.8796 
 128   0.0000       1.723361        46.8950 
 129   0.0000       1.806581        49.1596 
 130   0.0000       1.813374        49.3444 
 131   0.0000       1.821597        49.5682 
 132   0.0000       1.837153        49.9915 
 133   0.0000       1.848480        50.2997 
 134   0.0000       1.877746        51.0961 
 135   0.0000       1.899981        51.7011 
 136   0.0000       1.910754        51.9943 
 137   0.0000       1.932374        52.5826 
 138   0.0000       1.971625        53.6506 
 139   0.0000       1.991690        54.1966 
 140   0.0000       2.026770        55.1512 
 141   0.0000       2.036823        55.4248 
 142   0.0000       2.057901        55.9983 
 143   0.0000       2.102486        57.2115 
 144   0.0000       2.115088        57.5545 
 145   0.0000       2.176245        59.2186 
 146   0.0000       2.200811        59.8871 
 147   0.0000       2.284067        62.1526 
 148   0.0000       2.293524        62.4100 
 149   0.0000       2.338973        63.6467 
 150   0.0000       2.355554        64.0979 
 151   0.0000       2.390483        65.0483 
 152   0.0000       2.459649        66.9304 
 153   0.0000       2.471218        67.2453 
 154   0.0000       2.484586        67.6090 
 155   0.0000       2.512822        68.3774 
 156   0.0000       2.583179        70.2919 
 157   0.0000       2.591859        70.5281 
 158   0.0000       2.611842        71.0718 
 159   0.0000       2.653357        72.2015 
 160   0.0000       2.659027        72.3558 
 161   0.0000       2.661355        72.4191 
 162   0.0000       2.663430        72.4756 
 163   0.0000       2.689094        73.1740 
 164   0.0000       2.714072        73.8537 
 165   0.0000       2.737943        74.5032 
 166   0.0000       2.746525        74.7368 
 167   0.0000       2.769742        75.3685 
 168   0.0000       2.821623        76.7803 
 169   0.0000       2.833905        77.1145 
 170   0.0000       2.841574        77.3232 
 171   0.0000       2.847026        77.4715 
 172   0.0000       2.869966        78.0958 
 173   0.0000       2.932712        79.8032 
 174   0.0000       2.995461        81.5107 
 175   0.0000       3.034551        82.5743 
 176   0.0000       3.062651        83.3390 
 177   0.0000       3.068815        83.5067 
 178   0.0000       3.096116        84.2496 
 179   0.0000       3.111056        84.6562 
 180   0.0000       3.118277        84.8526 
 181   0.0000       3.140795        85.4654 
 182   0.0000       3.254166        88.5504 
 183   0.0000       3.300473        89.8104 
 184   0.0000       3.460087        94.1537 
 185   0.0000       3.482445        94.7621 
 186   0.0000       3.511042        95.5403 
 187   0.0000       3.740098       101.7732 

                    ********************************
                    * MULLIKEN POPULATION ANALYSIS *
                    ********************************

--------------------------------------------
MULLIKEN ATOMIC CHARGES AND SPIN POPULATIONS
--------------------------------------------
   0 C :    0.076796    0.014788
   1 C :   -0.124063    0.003127
   2 N :   -0.120607    0.001293
   3 C :    0.047512    0.003352
   4 C :   -0.040648    0.016975
   5 C :    0.035667   -0.010681
   6 C :   -0.144821    0.015827
   7 S :    0.894926   -0.177792
   8 O :   -0.320132    0.334798
   9 O :   -0.295120    0.401921
  10 O :   -0.296025    0.399731
  11 H :    0.041608   -0.000344
  12 H :    0.032052   -0.000765
  13 H :    0.037229   -0.000224
  14 H :    0.051169   -0.001460
  15 H :    0.062277   -0.000245
  16 H :    0.062179   -0.000299
Sum of atomic charges         :   -0.0000000
Sum of atomic spin populations:    1.0000000

-----------------------------------------------------
MULLIKEN REDUCED ORBITAL CHARGES AND SPIN POPULATIONS
-----------------------------------------------------
CHARGE
  0 C s       :     2.893401  s :     2.893401
      pz      :     1.029848  p :     3.003726
      px      :     1.014420
      py      :     0.959458
      dz2     :     0.004950  d :     0.026077
      dxz     :     0.007541
      dyz     :     0.002080
      dx2y2   :     0.004050
      dxy     :     0.007456
  1 C s       :     3.133566  s :     3.133566
      pz      :     0.900412  p :     2.922630
      px      :     0.965496
      py      :     1.056722
      dz2     :     0.003927  d :     0.067867
      dxz     :     0.010930
      dyz     :     0.007609
      dx2y2   :     0.019884
      dxy     :     0.025516
  2 N s       :     3.416460  s :     3.416460
      pz      :     1.120003  p :     3.675550
      px      :     1.137146
      py      :     1.418401
      dz2     :     0.003202  d :     0.028597
      dxz     :     0.004756
      dyz     :     0.004352
      dx2y2   :     0.010198
      dxy     :     0.006089
  3 C s       :     3.131554  s :     3.131554
      pz      :     0.920172  p :     2.763522
      px      :     0.928432
      py      :     0.914918
      dz2     :     0.003389  d :     0.057412
      dxz     :     0.003581
      dyz     :     0.009922
      dx2y2   :     0.023777
      dxy     :     0.016742
  4 C s       :     3.155079  s :     3.155079
      pz      :     0.997304  p :     2.851659
      px      :     0.939720
      py      :     0.914635
      dz2     :     0.002566  d :     0.033910
      dxz     :     0.004797
      dyz     :     0.003626
      dx2y2   :     0.010791
      dxy     :     0.012130
  5 C s       :     3.179813  s :     3.179813
      pz      :     0.923392  p :     2.747618
      px      :     0.884574
      py      :     0.939652
      dz2     :     0.002545  d :     0.036901
      dxz     :     0.006149
      dyz     :     0.004466
      dx2y2   :     0.010642
      dxy     :     0.013099
  6 C s       :     3.006438  s :     3.006438
      pz      :     1.064236  p :     3.099771
      px      :     1.014992
      py      :     1.020544
      dz2     :     0.003285  d :     0.038611
      dxz     :     0.003061
      dyz     :     0.006651
      dx2y2   :     0.015252
      dxy     :     0.010362
  7 S s       :     5.258770  s :     5.258770
      pz      :     2.904455  p :     8.940510
      px      :     3.107958
      py      :     2.928098
      dz2     :     0.220726  d :     0.905793
      dxz     :     0.127739
      dyz     :     0.235747
      dx2y2   :     0.192511
      dxy     :     0.129070
  8 O s       :     3.836955  s :     3.836955
      pz      :     1.438923  p :     4.464506
      px      :     1.722999
      py      :     1.302584
      dz2     :     0.002113  d :     0.018671
      dxz     :     0.000307
      dyz     :     0.004804
      dx2y2   :     0.006072
      dxy     :     0.005375
  9 O s       :     3.844535  s :     3.844535
      pz      :     1.318700  p :     4.432124
      px      :     1.740151
      py      :     1.373273
      dz2     :     0.005915  d :     0.018462
      dxz     :     0.003930
      dyz     :     0.005696
      dx2y2   :     0.001474
      dxy     :     0.001447
 10 O s       :     3.844522  s :     3.844522
      pz      :     1.315636  p :     4.433040
      px      :     1.740746
      py      :     1.376658
      dz2     :     0.005909  d :     0.018463
      dxz     :     0.003931
      dyz     :     0.005697
      dx2y2   :     0.001479
      dxy     :     0.001446
 11 H s       :     0.934208  s :     0.934208
      pz      :     0.004129  p :     0.024184
      px      :     0.007701
      py      :     0.012353
 12 H s       :     0.944536  s :     0.944536
      pz      :     0.004587  p :     0.023412
      px      :     0.006678
      py      :     0.012147
 13 H s       :     0.941427  s :     0.941427
      pz      :     0.003827  p :     0.021344
      px      :     0.015285
      py      :     0.002232
 14 H s       :     0.924806  s :     0.924806
      pz      :     0.004674  p :     0.024024
      px      :     0.009438
      py      :     0.009912
 15 H s       :     0.911616  s :     0.911616
      pz      :     0.012280  p :     0.026107
      px      :     0.009143
      py      :     0.004684
 16 H s       :     0.911718  s :     0.911718
      pz      :     0.012285  p :     0.026103
      px      :     0.009136
      py      :     0.004682

SPIN
  0 C s       :     0.001104  s :     0.001104
      pz      :     0.013783  p :     0.013650
      px      :    -0.000113
      py      :    -0.000020
      dz2     :     0.000005  d :     0.000033
      dxz     :     0.000034
      dyz     :     0.000019
      dx2y2   :    -0.000005
      dxy     :    -0.000020
  1 C s       :    -0.000629  s :    -0.000629
      pz      :     0.004724  p :     0.003555
      px      :    -0.000568
      py      :    -0.000601
      dz2     :    -0.000021  d :     0.000200
      dxz     :     0.000036
      dyz     :     0.000218
      dx2y2   :    -0.000030
      dxy     :    -0.000003
  2 N s       :    -0.000025  s :    -0.000025
      pz      :     0.001768  p :     0.001282
      px      :    -0.000340
      py      :    -0.000145
      dz2     :    -0.000002  d :     0.000036
      dxz     :     0.000059
      dyz     :    -0.000019
      dx2y2   :    -0.000000
      dxy     :    -0.000002
  3 C s       :    -0.000097  s :    -0.000097
      pz      :     0.003694  p :     0.003338
      px      :     0.000001
      py      :    -0.000358
      dz2     :    -0.000014  d :     0.000111
      dxz     :    -0.000004
      dyz     :     0.000129
      dx2y2   :     0.000002
      dxy     :    -0.000002
  4 C s       :     0.001973  s :     0.001973
      pz      :     0.014100  p :     0.015052
      px      :     0.000463
      py      :     0.000489
      dz2     :    -0.000038  d :    -0.000051
      dxz     :    -0.000039
      dyz     :     0.000032
      dx2y2   :    -0.000004
      dxy     :    -0.000001
  5 C s       :    -0.001653  s :    -0.001653
      pz      :    -0.007215  p :    -0.009218
      px      :    -0.001355
      py      :    -0.000648
      dz2     :     0.000017  d :     0.000190
      dxz     :     0.000143
      dyz     :     0.000075
      dx2y2   :    -0.000033
      dxy     :    -0.000012
  6 C s       :     0.000392  s :     0.000392
      pz      :     0.014249  p :     0.015595
      px      :    -0.001165
      py      :     0.002511
      dz2     :    -0.000051  d :    -0.000160
      dxz     :    -0.000048
      dyz     :    -0.000032
      dx2y2   :     0.000034
      dxy     :    -0.000063
  7 S s       :    -0.011424  s :    -0.011424
      pz      :    -0.051373  p :    -0.118419
      px      :    -0.010417
      py      :    -0.056629
      dz2     :    -0.017542  d :    -0.047949
      dxz     :    -0.002869
      dyz     :    -0.018730
      dx2y2   :    -0.006126
      dxy     :    -0.002682
  8 O s       :     0.007061  s :     0.007061
      pz      :     0.320292  p :     0.328039
      px      :     0.006485
      py      :     0.001262
      dz2     :    -0.000015  d :    -0.000302
      dxz     :     0.000000
      dyz     :    -0.000256
      dx2y2   :     0.000005
      dxy     :    -0.000035
  9 O s       :     0.007782  s :     0.007782
      pz      :     0.102923  p :     0.394413
      px      :     0.009451
      py      :     0.282038
      dz2     :    -0.000136  d :    -0.000274
      dxz     :    -0.000034
      dyz     :    -0.000076
      dx2y2   :    -0.000011
      dxy     :    -0.000017
 10 O s       :     0.007739  s :     0.007739
      pz      :     0.106016  p :     0.392265
      px      :     0.008443
      py      :     0.277806
      dz2     :    -0.000130  d :    -0.000273
      dxz     :    -0.000035
      dyz     :    -0.000076
      dx2y2   :    -0.000018
      dxy     :    -0.000015
 11 H s       :    -0.000302  s :    -0.000302
      pz      :    -0.000025  p :    -0.000042
      px      :    -0.000016
      py      :    -0.000001
 12 H s       :    -0.000835  s :    -0.000835
      pz      :     0.000065  p :     0.000070
      px      :     0.000000
      py      :     0.000005
 13 H s       :    -0.000247  s :    -0.000247
      pz      :     0.000022  p :     0.000023
      px      :     0.000002
      py      :    -0.000002
 14 H s       :    -0.001535  s :    -0.001535
      pz      :     0.000069  p :     0.000075
      px      :     0.000004
      py      :     0.000002
 15 H s       :    -0.000498  s :    -0.000498
      pz      :     0.000004  p :     0.000253
      px      :     0.000232
      py      :     0.000017
 16 H s       :    -0.000551  s :    -0.000551
      pz      :     0.000002  p :     0.000251
      px      :     0.000231
      py      :     0.000018


                     *******************************
                     * LOEWDIN POPULATION ANALYSIS *
                     *******************************

-------------------------------------------
LOEWDIN ATOMIC CHARGES AND SPIN POPULATIONS
-------------------------------------------
   0 C :   -0.069204    0.010282
   1 C :    0.013565    0.003797
   2 N :   -0.081150    0.001692
   3 C :    0.030739    0.004159
   4 C :   -0.042559    0.013182
   5 C :   -0.006550   -0.006936
   6 C :   -0.193460    0.007983
   7 S :    1.078181   -0.117246
   8 O :   -0.340010    0.317863
   9 O :   -0.308996    0.382593
  10 O :   -0.310022    0.380460
  11 H :    0.039297   -0.000389
  12 H :    0.037097   -0.000084
  13 H :    0.027092   -0.000055
  14 H :    0.041940   -0.000500
  15 H :    0.042041    0.001621
  16 H :    0.042000    0.001580

----------------------------------------------------
LOEWDIN REDUCED ORBITAL CHARGES AND SPIN POPULATIONS
----------------------------------------------------
CHARGE
  0 C s       :     2.823405  s :     2.823405
      pz      :     1.069218  p :     3.174047
      px      :     1.071759
      py      :     1.033069
      dz2     :     0.013909  d :     0.071753
      dxz     :     0.020373
      dyz     :     0.004300
      dx2y2   :     0.011239
      dxy     :     0.021932
  1 C s       :     2.841518  s :     2.841518
      pz      :     0.883933  p :     2.983905
      px      :     1.030926
      py      :     1.069045
      dz2     :     0.009337  d :     0.161012
      dxz     :     0.019964
      dyz     :     0.014286
      dx2y2   :     0.051810
      dxy     :     0.065615
  2 N s       :     3.180801  s :     3.180801
      pz      :     1.111683  p :     3.839232
      px      :     1.254520
      py      :     1.473029
      dz2     :     0.006348  d :     0.061117
      dxz     :     0.008898
      dyz     :     0.005971
      dx2y2   :     0.024060
      dxy     :     0.015839
  3 C s       :     2.849852  s :     2.849852
      pz      :     0.906933  p :     2.979506
      px      :     1.034256
      py      :     1.038316
      dz2     :     0.008125  d :     0.139903
      dxz     :     0.005526
      dyz     :     0.019832
      dx2y2   :     0.062673
      dxy     :     0.043747
  4 C s       :     2.860854  s :     2.860854
      pz      :     0.974165  p :     3.091694
      px      :     1.057212
      py      :     1.060317
      dz2     :     0.006483  d :     0.090011
      dxz     :     0.009658
      dyz     :     0.006615
      dx2y2   :     0.032721
      dxy     :     0.034535
  5 C s       :     2.854979  s :     2.854979
      pz      :     0.916271  p :     3.055223
      px      :     1.072496
      py      :     1.066456
      dz2     :     0.006374  d :     0.096348
      dxz     :     0.012574
      dyz     :     0.008610
      dx2y2   :     0.031543
      dxy     :     0.037247
  6 C s       :     2.918331  s :     2.918331
      pz      :     1.041563  p :     3.177701
      px      :     1.031022
      py      :     1.105116
      dz2     :     0.007666  d :     0.097428
      dxz     :     0.005055
      dyz     :     0.013966
      dx2y2   :     0.040094
      dxy     :     0.030647
  7 S s       :     4.991864  s :     4.991864
      pz      :     2.889340  p :     8.757261
      px      :     2.979895
      py      :     2.888025
      dz2     :     0.294234  d :     1.172695
      dxz     :     0.150332
      dyz     :     0.311131
      dx2y2   :     0.264077
      dxy     :     0.152920
  8 O s       :     3.675296  s :     3.675296
      pz      :     1.459447  p :     4.635140
      px      :     1.726671
      py      :     1.449022
      dz2     :     0.004405  d :     0.029574
      dxz     :     0.000360
      dyz     :     0.005817
      dx2y2   :     0.011699
      dxy     :     0.007293
  9 O s       :     3.681520  s :     3.681520
      pz      :     1.436065  p :     4.598282
      px      :     1.740943
      py      :     1.421274
      dz2     :     0.009676  d :     0.029194
      dxz     :     0.004941
      dyz     :     0.010662
      dx2y2   :     0.002046
      dxy     :     0.001870
 10 O s       :     3.681486  s :     3.681486
      pz      :     1.433410  p :     4.599340
      px      :     1.741554
      py      :     1.424376
      dz2     :     0.009671  d :     0.029196
      dxz     :     0.004941
      dyz     :     0.010664
      dx2y2   :     0.002051
      dxy     :     0.001869
 11 H s       :     0.888900  s :     0.888900
      pz      :     0.012819  p :     0.071803
      px      :     0.023242
      py      :     0.035742
 12 H s       :     0.892190  s :     0.892190
      pz      :     0.014766  p :     0.070713
      px      :     0.020482
      py      :     0.035466
 13 H s       :     0.906348  s :     0.906348
      pz      :     0.012723  p :     0.066560
      px      :     0.044206
      py      :     0.009630
 14 H s       :     0.889933  s :     0.889933
      pz      :     0.012867  p :     0.068127
      px      :     0.025604
      py      :     0.029656
 15 H s       :     0.886539  s :     0.886539
      pz      :     0.032869  p :     0.071420
      px      :     0.024865
      py      :     0.013685
 16 H s       :     0.886571  s :     0.886571
      pz      :     0.032890  p :     0.071429
      px      :     0.024852
      py      :     0.013687

SPIN
  0 C s       :    -0.000143  s :    -0.000143
      pz      :     0.011047  p :     0.010414
      px      :    -0.000629
      py      :    -0.000004
      dz2     :     0.000007  d :     0.000010
      dxz     :     0.000053
      dyz     :     0.000050
      dx2y2   :    -0.000004
      dxy     :    -0.000096
  1 C s       :    -0.000135  s :    -0.000135
      pz      :     0.003989  p :     0.003526
      px      :    -0.000205
      py      :    -0.000258
      dz2     :    -0.000022  d :     0.000406
      dxz     :     0.000063
      dyz     :     0.000420
      dx2y2   :    -0.000058
      dxy     :     0.000003
  2 N s       :     0.000017  s :     0.000017
      pz      :     0.001898  p :     0.001593
      px      :    -0.000240
      py      :    -0.000065
      dz2     :    -0.000000  d :     0.000082
      dxz     :     0.000093
      dyz     :    -0.000004
      dx2y2   :     0.000001
      dxy     :    -0.000008
  3 C s       :     0.000037  s :     0.000037
      pz      :     0.003935  p :     0.003852
      px      :     0.000025
      py      :    -0.000109
      dz2     :    -0.000011  d :     0.000271
      dxz     :    -0.000001
      dyz     :     0.000279
      dx2y2   :     0.000002
      dxy     :     0.000003
  4 C s       :     0.000349  s :     0.000349
      pz      :     0.012556  p :     0.012950
      px      :     0.000220
      py      :     0.000173
      dz2     :    -0.000041  d :    -0.000116
      dxz     :    -0.000069
      dyz     :     0.000041
      dx2y2   :    -0.000021
      dxy     :    -0.000025
  5 C s       :    -0.000472  s :    -0.000472
      pz      :    -0.005891  p :    -0.006828
      px      :    -0.000536
      py      :    -0.000400
      dz2     :     0.000018  d :     0.000363
      dxz     :     0.000310
      dyz     :     0.000136
      dx2y2   :    -0.000065
      dxy     :    -0.000035
  6 C s       :    -0.000855  s :    -0.000855
      pz      :     0.013074  p :     0.009328
      px      :    -0.003696
      py      :    -0.000049
      dz2     :    -0.000085  d :    -0.000490
      dxz     :    -0.000200
      dyz     :    -0.000078
      dx2y2   :     0.000043
      dxy     :    -0.000171
  7 S s       :    -0.005102  s :    -0.005102
      pz      :    -0.024688  p :    -0.055926
      px      :    -0.006264
      py      :    -0.024975
      dz2     :    -0.021155  d :    -0.056218
      dxz     :    -0.002844
      dyz     :    -0.022402
      dx2y2   :    -0.007170
      dxy     :    -0.002647
  8 O s       :     0.002556  s :     0.002556
      pz      :     0.310631  p :     0.315955
      px      :     0.005754
      py      :    -0.000430
      dz2     :     0.000058  d :    -0.000648
      dxz     :    -0.000018
      dyz     :    -0.000538
      dx2y2   :    -0.000085
      dxy     :    -0.000065
  9 O s       :     0.003069  s :     0.003069
      pz      :     0.097872  p :     0.380200
      px      :     0.008788
      py      :     0.273540
      dz2     :    -0.000389  d :    -0.000676
      dxz     :    -0.000057
      dyz     :    -0.000089
      dx2y2   :    -0.000108
      dxy     :    -0.000033
 10 O s       :     0.003044  s :     0.003044
      pz      :     0.100532  p :     0.378091
      px      :     0.007792
      py      :     0.269767
      dz2     :    -0.000391  d :    -0.000675
      dxz     :    -0.000060
      dyz     :    -0.000081
      dx2y2   :    -0.000114
      dxy     :    -0.000029
 11 H s       :    -0.000151  s :    -0.000151
      pz      :    -0.000124  p :    -0.000238
      px      :    -0.000077
      py      :    -0.000038
 12 H s       :    -0.000413  s :    -0.000413
      pz      :     0.000278  p :     0.000329
      px      :     0.000009
      py      :     0.000041
 13 H s       :    -0.000125  s :    -0.000125
      pz      :     0.000059  p :     0.000071
      px      :     0.000016
      py      :    -0.000004
 14 H s       :    -0.000853  s :    -0.000853
      pz      :     0.000311  p :     0.000353
[...]
      px      :    -0.000113
      py      :    -0.000027
      dz2     :    -0.000001  d :     0.000004
      dxz     :    -0.000002
      dyz     :     0.000012
      dx2y2   :    -0.000001
      dxy     :    -0.000004
  5 C s       :    -0.000454  s :    -0.000454
      pz      :     0.000152  p :     0.000124
      px      :     0.000190
      py      :    -0.000218
      dz2     :    -0.000001  d :     0.000000
      dxz     :     0.000007
      dyz     :     0.000024
      dx2y2   :    -0.000027
      dxy     :    -0.000003
  6 C s       :    -0.001673  s :    -0.001673
      pz      :     0.002687  p :     0.003950
      px      :    -0.001404
      py      :     0.002667
      dz2     :    -0.000022  d :    -0.000148
      dxz     :    -0.000072
      dyz     :     0.000002
      dx2y2   :     0.000013
      dxy     :    -0.000069
  7 S s       :    -0.009338  s :    -0.009338
      pz      :    -0.022257  p :    -0.084053
      px      :    -0.010513
      py      :    -0.051283
      dz2     :    -0.018838  d :    -0.032014
      dxz     :    -0.001661
      dyz     :    -0.004991
      dx2y2   :    -0.004693
      dxy     :    -0.001831
  8 O s       :     0.003376  s :     0.003376
      pz      :     0.074592  p :     0.071421
      px      :    -0.000110
      py      :    -0.003061
      dz2     :    -0.000016  d :    -0.000198
      dxz     :    -0.000017
      dyz     :    -0.000154
      dx2y2   :    -0.000003
      dxy     :    -0.000009
  9 O s       :     0.006000  s :     0.006000
      pz      :     0.320712  p :     0.518317
      px      :     0.022554
      py      :     0.175052
      dz2     :    -0.000227  d :    -0.000238
      dxz     :     0.000041
      dyz     :     0.000005
      dx2y2   :    -0.000031
      dxy     :    -0.000025
 10 O s       :     0.005999  s :     0.005999
      pz      :     0.320748  p :     0.518106
      px      :     0.022544
      py      :     0.174814
      dz2     :    -0.000227  d :    -0.000238
      dxz     :     0.000041
      dyz     :     0.000005
      dx2y2   :    -0.000031
      dxy     :    -0.000025
 11 H s       :    -0.000287  s :    -0.000287
      pz      :     0.000007  p :     0.000005
      px      :    -0.000004
      py      :     0.000001
 12 H s       :    -0.000089  s :    -0.000089
      pz      :     0.000002  p :     0.000002
      px      :     0.000000
      py      :    -0.000000
 13 H s       :    -0.000130  s :    -0.000130
      pz      :     0.000011  p :     0.000012
      px      :     0.000001
      py      :    -0.000000
 14 H s       :    -0.000581  s :    -0.000581
      pz      :     0.000007  p :     0.000009
      px      :     0.000002
      py      :    -0.000001
 15 H s       :    -0.000726  s :    -0.000726
      pz      :    -0.000006  p :     0.000006
      px      :     0.000015
      py      :    -0.000003
 16 H s       :    -0.000720  s :    -0.000720
      pz      :    -0.000006  p :     0.000006
      px      :     0.000015
      py      :    -0.000003


                     *******************************
                     * LOEWDIN POPULATION ANALYSIS *
                     *******************************

-------------------------------------------
LOEWDIN ATOMIC CHARGES AND SPIN POPULATIONS
-------------------------------------------
   0 C :   -0.072221   -0.000159
   1 C :    0.041310    0.001456
   2 N :   -0.084117   -0.000836
   3 C :    0.052506    0.002171
   4 C :   -0.055131    0.000108
   5 C :    0.020965   -0.000398
   6 C :   -0.230107   -0.002460
   7 S :    1.152320   -0.080773
   8 O :   -0.440721    0.068360
   9 O :   -0.325628    0.506977
  10 O :   -0.325669    0.506764
  11 H :    0.049702   -0.000183
  12 H :    0.044778   -0.000053
  13 H :    0.034598   -0.000024
  14 H :    0.043341   -0.000362
  15 H :    0.047013   -0.000295
  16 H :    0.047061   -0.000292

----------------------------------------------------
LOEWDIN REDUCED ORBITAL CHARGES AND SPIN POPULATIONS
----------------------------------------------------
CHARGE
  0 C s       :     2.835369  s :     2.835369
      pz      :     1.080954  p :     3.169207
      px      :     1.072070
      py      :     1.016183
      dz2     :     0.013761  d :     0.067644
      dxz     :     0.018227
      dyz     :     0.004126
      dx2y2   :     0.010737
      dxy     :     0.020792
  1 C s       :     2.856100  s :     2.856100
      pz      :     0.861406  p :     2.951461
      px      :     1.025501
      py      :     1.064554
      dz2     :     0.008987  d :     0.151129
      dxz     :     0.019449
      dyz     :     0.013533
      dx2y2   :     0.048180
      dxy     :     0.060981
  2 N s       :     3.209467  s :     3.209467
      pz      :     1.115705  p :     3.814593
      px      :     1.237942
      py      :     1.460945
      dz2     :     0.006655  d :     0.060058
      dxz     :     0.007689
      dyz     :     0.005760
      dx2y2   :     0.024147
      dxy     :     0.015808
  3 C s       :     2.861711  s :     2.861711
      pz      :     0.878787  p :     2.952878
      px      :     1.037265
      py      :     1.036825
      dz2     :     0.007917  d :     0.132905
      dxz     :     0.005171
      dyz     :     0.019519
      dx2y2   :     0.058753
      dxy     :     0.041545
  4 C s       :     2.863363  s :     2.863363
      pz      :     0.987366  p :     3.103371
      px      :     1.057868
      py      :     1.058137
      dz2     :     0.006455  d :     0.088397
      dxz     :     0.008935
      dyz     :     0.006077
      dx2y2   :     0.032472
      dxy     :     0.034459
  5 C s       :     2.865358  s :     2.865358
      pz      :     0.882147  p :     3.020249
      px      :     1.078845
      py      :     1.059256
      dz2     :     0.006231  d :     0.093428
      dxz     :     0.013494
      dyz     :     0.008206
      dx2y2   :     0.029299
      dxy     :     0.036197
  6 C s       :     2.910282  s :     2.910282
      pz      :     1.110037  p :     3.222920
      px      :     1.007130
      py      :     1.105753
      dz2     :     0.008156  d :     0.096905
      dxz     :     0.004740
      dyz     :     0.012362
      dx2y2   :     0.042103
      dxy     :     0.029544
  7 S s       :     5.016051  s :     5.016051
      pz      :     2.890159  p :     8.759898
      px      :     2.974061
      py      :     2.895678
      dz2     :     0.207035  d :     1.071731
      dxz     :     0.136294
      dyz     :     0.287311
      dx2y2   :     0.268414
      dxy     :     0.172676
  8 O s       :     3.673240  s :     3.673240
      pz      :     1.611359  p :     4.737269
      px      :     1.684881
      py      :     1.441030
      dz2     :     0.004340  d :     0.030212
      dxz     :     0.000698
      dyz     :     0.005918
      dx2y2   :     0.011008
      dxy     :     0.008249
  9 O s       :     3.723687  s :     3.723687
      pz      :     1.348199  p :     4.577016
      px      :     1.728067
      py      :     1.500750
      dz2     :     0.005206  d :     0.024925
      dxz     :     0.004973
      dyz     :     0.009141
      dx2y2   :     0.002449
      dxy     :     0.003155
 10 O s       :     3.723640  s :     3.723640
      pz      :     1.348257  p :     4.577100
      px      :     1.728047
      py      :     1.500796
      dz2     :     0.005204  d :     0.024929
      dxz     :     0.004972
      dyz     :     0.009144
      dx2y2   :     0.002452
      dxy     :     0.003158
 11 H s       :     0.879033  s :     0.879033
      pz      :     0.011328  p :     0.071265
      px      :     0.022798
      py      :     0.037140
 12 H s       :     0.886565  s :     0.886565
      pz      :     0.014181  p :     0.068657
      px      :     0.019977
      py      :     0.034499
 13 H s       :     0.900612  s :     0.900612
      pz      :     0.011383  p :     0.064790
      px      :     0.044641
      py      :     0.008766
 14 H s       :     0.889668  s :     0.889668
      pz      :     0.012622  p :     0.066990
      px      :     0.027678
      py      :     0.026690
 15 H s       :     0.884556  s :     0.884556
      pz      :     0.031965  p :     0.068431
      px      :     0.023857
      py      :     0.012608
 16 H s       :     0.884520  s :     0.884520
      pz      :     0.031998  p :     0.068419
      px      :     0.023812
      py      :     0.012610

SPIN
  0 C s       :    -0.000222  s :    -0.000222
      pz      :     0.000699  p :     0.000093
      px      :    -0.000430
      py      :    -0.000176
      dz2     :    -0.000010  d :    -0.000030
      dxz     :     0.000014
      dyz     :     0.000019
      dx2y2   :    -0.000001
      dxy     :    -0.000053
  1 C s       :    -0.000058  s :    -0.000058
      pz      :     0.001582  p :     0.001520
      px      :    -0.000045
      py      :    -0.000016
      dz2     :    -0.000011  d :    -0.000006
      dxz     :    -0.000007
      dyz     :     0.000073
      dx2y2   :    -0.000049
      dxy     :    -0.000013
  2 N s       :    -0.000021  s :    -0.000021
      pz      :    -0.000613  p :    -0.000857
      px      :    -0.000174
      py      :    -0.000070
      dz2     :     0.000001  d :     0.000042
      dxz     :     0.000030
      dyz     :     0.000008
      dx2y2   :     0.000003
      dxy     :     0.000001
  3 C s       :     0.000064  s :     0.000064
      pz      :     0.002047  p :     0.002128
      px      :     0.000043
      py      :     0.000038
      dz2     :    -0.000007  d :    -0.000021
      dxz     :    -0.000005
      dyz     :     0.000002
      dx2y2   :    -0.000005
      dxy     :    -0.000006
  4 C s       :    -0.000058  s :    -0.000058
      pz      :     0.000283  p :     0.000159
      px      :    -0.000099
      py      :    -0.000025
      dz2     :    -0.000003  d :     0.000007
      dxz     :     0.000005
      dyz     :     0.000020
      dx2y2   :     0.000000
      dxy     :    -0.000015
  5 C s       :    -0.000164  s :    -0.000164
      pz      :     0.000228  p :    -0.000183
      px      :    -0.000182
      py      :    -0.000228
      dz2     :    -0.000004  d :    -0.000051
      dxz     :     0.000023
      dyz     :     0.000038
      dx2y2   :    -0.000080
      dxy     :    -0.000028
  6 C s       :    -0.001151  s :    -0.001151
      pz      :     0.002232  p :    -0.000966
      px      :    -0.003045
      py      :    -0.000154
      dz2     :    -0.000057  d :    -0.000343
      dxz     :    -0.000158
      dyz     :     0.000004
      dx2y2   :     0.000034
      dxy     :    -0.000165
  7 S s       :    -0.004699  s :    -0.004699
      pz      :    -0.013871  p :    -0.040457
      px      :    -0.005892
      py      :    -0.020693
      dz2     :    -0.022972  d :    -0.035618
      dxz     :    -0.001314
      dyz     :    -0.004654
      dx2y2   :    -0.005590
      dxy     :    -0.001088
  8 O s       :     0.000155  s :     0.000155
      pz      :     0.071914  p :     0.068493
      px      :    -0.000167
      py      :    -0.003253
      dz2     :     0.000008  d :    -0.000288
      dxz     :    -0.000024
      dyz     :    -0.000225
      dx2y2   :    -0.000021
      dxy     :    -0.000026
  9 O s       :     0.004324  s :     0.004324
      pz      :     0.305726  p :     0.503253
      px      :     0.022434
      py      :     0.175093
      dz2     :    -0.000537  d :    -0.000600
      dxz     :    -0.000012
      dyz     :     0.000084
      dx2y2   :    -0.000074
      dxy     :    -0.000062
 10 O s       :     0.004324  s :     0.004324
      pz      :     0.305758  p :     0.503041
      px      :     0.022425
      py      :     0.174858
      dz2     :    -0.000538  d :    -0.000601
      dxz     :    -0.000012
      dyz     :     0.000084
      dx2y2   :    -0.000074
      dxy     :    -0.000062
 11 H s       :    -0.000153  s :    -0.000153
      pz      :     0.000009  p :    -0.000030
      px      :    -0.000027
      py      :    -0.000011
 12 H s       :    -0.000058  s :    -0.000058
      pz      :     0.000010  p :     0.000005
      px      :    -0.000007
      py      :     0.000002
 13 H s       :    -0.000070  s :    -0.000070
      pz      :     0.000037  p :     0.000047
      px      :     0.000009
      py      :     0.000000
 14 H s       :    -0.000383  s :    -0.000383
      pz      :     0.000019  p :     0.000021
      px      :    -0.000004
      py      :     0.000006
 15 H s       :    -0.000255  s :    -0.000255
      pz      :    -0.000044  p :    -0.000040
      px      :     0.000007
      py      :    -0.000003
 16 H s       :    -0.000252  s :    -0.000252
      pz      :    -0.000044  p :    -0.000040
      px      :     0.000008
      py      :    -0.000003


                      *****************************
                      * MAYER POPULATION ANALYSIS *
                      *****************************

  NA   - Mulliken gross atomic population
  ZA   - Total nuclear charge
  QA   - Mulliken gross atomic charge
  VA   - Mayer's total valence
  BVA  - Mayer's bonded valence
  FA   - Mayer's free valence

  ATOM       NA         ZA         QA         VA         BVA        FA
  0 C      5.9436     6.0000     0.0564     3.8763     3.8763     0.0000
  1 C      6.1256     6.0000    -0.1256     4.2210     4.2210     0.0000
  2 N      7.1273     7.0000    -0.1273     3.2091     3.2091     0.0000
  3 C      5.9408     6.0000     0.0592     3.9998     3.9998     0.0000
  4 C      6.0521     6.0000    -0.0521     3.8743     3.8743     0.0000
  5 C      5.9447     6.0000     0.0553     3.9657     3.9657     0.0000
  6 C      6.1466     6.0000    -0.1466     3.8014     3.8013     0.0000
  7 S     15.0713    16.0000     0.9287     5.5664     5.5604     0.0060
  8 O      8.3885     8.0000    -0.3885     2.0702     2.0646     0.0056
  9 O      8.3130     8.0000    -0.3130     2.1098     1.8519     0.2579
 10 O      8.3130     8.0000    -0.3130     2.1098     1.8522     0.2576
 11 H      0.9319     1.0000     0.0681     1.0129     1.0129     0.0000
 12 H      0.9525     1.0000     0.0475     0.9885     0.9885     0.0000
 13 H      0.9465     1.0000     0.0535     0.9863     0.9863     0.0000
 14 H      0.9452     1.0000     0.0548     1.0198     1.0198     0.0000
 15 H      0.9288     1.0000     0.0712     1.0121     1.0121     0.0000
 16 H      0.9287     1.0000     0.0713     1.0120     1.0120     0.0000

  Mayer bond orders larger than 0.100000
B(  0-C ,  1-C ) :   1.0775 B(  0-C , 14-H ) :   0.9483 B(  0-C , 15-H ) :   0.9419 
B(  0-C , 16-H ) :   0.9420 B(  1-C ,  2-N ) :   1.5822 B(  1-C ,  6-C ) :   1.3114 
B(  2-N ,  3-C ) :   1.5064 B(  3-C ,  4-C ) :   1.3883 B(  3-C , 13-H ) :   0.9777 
B(  4-C ,  5-C ) :   1.4194 B(  4-C , 12-H ) :   0.9765 B(  5-C ,  6-C ) :   1.4220 
B(  5-C , 11-H ) :   0.9742 B(  6-C ,  7-S ) :   0.8893 B(  7-S ,  8-O ) :   1.8099 
B(  7-S ,  9-O ) :   1.3939 B(  7-S , 10-O ) :   1.3941 B(  9-O , 10-O ) :   0.3088 


-------
TIMINGS
-------

Total SCF time: 0 days 0 hours 1 min 0 sec 

Total time                  ....      60.648 sec
Sum of individual times     ....      60.419 sec  ( 99.6%)

Fock matrix formation       ....      59.110 sec  ( 97.5%)
  XC integration            ....       5.406 sec  (  9.1% of F)
    Basis function eval.    ....       1.255 sec  ( 23.2% of XC)
    Density eval.           ....       1.240 sec  ( 22.9% of XC)
    XC-Functional eval.     ....       1.185 sec  ( 21.9% of XC)
    XC-Potential eval.      ....       1.592 sec  ( 29.5% of XC)
Diagonalization             ....       0.081 sec  (  0.1%)
Density matrix formation    ....       0.011 sec  (  0.0%)
Population analysis         ....       0.009 sec  (  0.0%)
Initial guess               ....       0.008 sec  (  0.0%)
Orbital Transformation      ....       0.000 sec  (  0.0%)
Orbital Orthonormalization  ....       0.006 sec  (  0.0%)
DIIS solution               ....       0.023 sec  (  0.0%)
Grid generation             ....       1.177 sec  (  1.9%)


-------------------------------------------------------------------------------
                          DFT DISPERSION CORRECTION                            
                                                                               
                              DFTD3 V3.1  Rev 1                                
                              USING zero damping                               
-------------------------------------------------------------------------------
The omegaB97X-D3 functional is recognized. Fit by Chai et al.
Active option DFTDOPT                   ...         3   

molecular C6(AA) [au] = 4338.614215 


            DFT-D V3
 parameters
 s6 scaling factor         :     1.0000 
 rs6 scaling factor        :     1.2810 
 s8 scaling factor         :     1.0000 
 rs8 scaling factor        :     1.0940 
 Damping factor alpha6     :    14.0000 
 Damping factor alpha8     :    16.0000 
 ad hoc parameters k1-k3   :    16.0000     1.3333    -4.0000 

 Edisp/kcal,au: -4.037334942778  -0.006433902083 
 E6   /kcal   :  -1.587229329 
 E8   /kcal   :  -2.450105614 
 % E8         :  60.686211286 

-------------------------   ----------------
Dispersion correction           -0.006433902
-------------------------   ----------------


-------------------------   --------------------
FINAL SINGLE POINT ENERGY      -910.061046385593
-------------------------   --------------------

                                *** OPTIMIZATION RUN DONE ***

                            ***************************************
                            *     ORCA property calculations      *
                            ***************************************

                                    ---------------------
                                    Active property flags
                                    ---------------------
   (+) Dipole Moment


------------------------------------------------------------------------------
                       ORCA ELECTRIC PROPERTIES CALCULATION
------------------------------------------------------------------------------

Dipole Moment Calculation                       ... on
Quadrupole Moment Calculation                   ... off
Polarizability Calculation                      ... off
GBWName                                         ... 026338816.gbw
Electron density file                           ... 026338816.scfp
The origin for moment calculation is the CENTER OF MASS  = (-0.034397, -0.055099 -0.000028)

-------------
DIPOLE MOMENT
-------------
                                X             Y             Z
Electronic contribution:     -6.18974      -3.44033       0.00042
Nuclear contribution   :      7.54795       3.01424      -0.00051
                        -----------------------------------------
Total Dipole Moment    :      1.35822      -0.42609      -0.00009
                        -----------------------------------------
Magnitude (a.u.)       :      1.42348
Magnitude (Debye)      :      3.61821



--------------------
Rotational spectrum 
--------------------
 
Rotational constants in cm-1:     0.061583     0.028223     0.021432 
Rotational constants in MHz :  1846.200175   846.098977   642.520279 

 Dipole components along the rotational axes: 
x,y,z [a.u.] :     1.342249    -0.473995    -0.000090 
x,y,z [Debye]:     3.411725    -1.204801    -0.000228 

 

Timings for individual modules:

Sum of individual times         ...     3215.788 sec (=  53.596 min)
GTO integral calculation        ...        9.763 sec (=   0.163 min)   0.3 %
SCF iterations                  ...     2700.212 sec (=  45.004 min)  84.0 %
SCF Gradient evaluation         ...      497.474 sec (=   8.291 min)  15.5 %
Geometry relaxation             ...        8.339 sec (=   0.139 min)   0.3 %
                             ****ORCA TERMINATED NORMALLY****
TOTAL RUN TIME: 0 days 0 hours 53 minutes 37 seconds 89 msec
