
                                 *****************
                                 * O   R   C   A *
                                 *****************

           --- An Ab Initio, DFT and Semiempirical electronic structure package ---

                  #######################################################
                  #                        -***-                        #
                  #          Department of theory and spectroscopy      #
                  #               Directorship: Frank Neese             #
                  #        Max Planck Institute fuer Kohlenforschung    #
                  #                Kaiser Wilhelm Platz 1               #
                  #                 D-45470 Muelheim/Ruhr               #
                  #                      Germany                        #
                  #                                                     #
                  #                  All rights reserved                #
                  #                        -***-                        #
                  #######################################################


                         Program Version 4.2.0 -  RELEASE  -


 With contributions from (in alphabetic order):
   Daniel Aravena         : Magnetic Suceptibility
   Michael Atanasov       : Ab Initio Ligand Field Theory (pilot matlab implementation)
   Alexander A. Auer      : GIAO ZORA, VPT2
   Ute Becker             : Parallelization
   Giovanni Bistoni       : ED, misc. LED, open-shell LED, HFLED
   Martin Brehm           : Molecular dynamics
   Dmytro Bykov           : SCF Hessian
   Vijay G. Chilkuri      : MRCI spin determinant printing, contributions to CSF-ICE
   Dipayan Datta          : RHF DLPNO-CCSD density
   Achintya Kumar Dutta   : EOM-CC, STEOM-CC
   Dmitry Ganyushin       : Spin-Orbit,Spin-Spin,Magnetic field MRCI
   Miquel Garcia          : C-PCM Hessian, Gaussian charge scheme
   Yang Guo               : DLPNO-NEVPT2, CIM, IAO-localization
   Andreas Hansen         : Spin unrestricted coupled pair/coupled cluster methods
   Benjamin Helmich-Paris : CASSCF linear response (MC-RPA)
   Lee Huntington         : MR-EOM, pCC
   Robert Izsak           : Overlap fitted RIJCOSX, COSX-SCS-MP3, EOM
   Christian Kollmar      : KDIIS, OOCD, Brueckner-CCSD(T), CCSD density
   Simone Kossmann        : Meta GGA functionals, TD-DFT gradient, OOMP2, MP2 Hessian
   Martin Krupicka        : AUTO-CI
   Lucas Lang             : DCDCAS
   Dagmar Lenk            : GEPOL surface, SMD
   Dimitrios Liakos       : Extrapolation schemes; Compound Job, initial MDCI parallelization
   Dimitrios Manganas     : Further ROCIS development; embedding schemes
   Dimitrios Pantazis     : SARC Basis sets
   Taras Petrenko         : DFT Hessian,TD-DFT gradient, ASA, ECA, R-Raman, ABS, FL, XAS/XES, NRVS
   Peter Pinski           : DLPNO-MP2, DLPNO-MP2 Gradient
   Christoph Reimann      : Effective Core Potentials
   Marius Retegan         : Local ZFS, SOC
   Christoph Riplinger    : Optimizer, TS searches, QM/MM, DLPNO-CCSD(T), (RO)-DLPNO pert. Triples
   Tobias Risthaus        : Range-separated hybrids, TD-DFT gradient, RPA, STAB
   Michael Roemelt        : Original ROCIS implementation
   Masaaki Saitow         : Open-shell DLPNO-CCSD energy and density
   Barbara Sandhoefer     : DKH picture change effects
   Avijit Sen             : IP-ROCIS
   Kantharuban Sivalingam : CASSCF convergence, NEVPT2, FIC-MRCI
   Bernardo de Souza      : ESD, SOC TD-DFT
   Georgi Stoychev        : AutoAux, RI-MP2 NMR
   Willem Van den Heuvel  : Paramagnetic NMR
   Boris Wezisla          : Elementary symmetry handling
   Frank Wennmohs         : Technical directorship


 We gratefully acknowledge several colleagues who have allowed us to
 interface, adapt or use parts of their codes:
   Stefan Grimme, W. Hujo, H. Kruse,             : VdW corrections, initial TS optimization,
                  C. Bannwarth                     DFT functionals, gCP, sTDA/sTD-DF
   Ed Valeev, F. Pavosevic, A. Kumar             : LibInt (2-el integral package), F12 methods
   Garnet Chan, S. Sharma, J. Yang, R. Olivares  : DMRG
   Ulf Ekstrom                                   : XCFun DFT Library
   Mihaly Kallay                                 : mrcc  (arbitrary order and MRCC methods)
   Andreas Klamt, Michael Diedenhofen            : otool_cosmo (COSMO solvation model)
   Jiri Pittner, Ondrej Demel                    : Mk-CCSD
   Frank Weinhold                                : gennbo (NPA and NBO analysis)
   Christopher J. Cramer and Donald G. Truhlar   : smd solvation model
   Lars Goerigk                                  : TD-DFT with DH, B97 family of functionals
   V. Asgeirsson, H. Jonsson                     : NEB implementation
   FAccTs GmbH                                   : IRC, NEB, NEB-TS, Multilevel, MM, QM/MM, CI optimization
   S Lehtola, MJT Oliveira, MAL Marques          : LibXC Library


 Your calculation uses the libint2 library for the computation of 2-el integrals
 For citations please refer to: http://libint.valeyev.net

 Your ORCA version has been built with support for libXC version: 4.2.3
 For citations please refer to: https://tddft.org/programs/libxc/

 This ORCA versions uses:
   CBLAS   interface :  Fast vector & matrix operations
   LAPACKE interface :  Fast linear algebra routines
   SCALAPACK package :  Parallel linear algebra routines


Your calculation utilizes the atom-pairwise dispersion correction
with the zero-damping scheme (D30)
Cite in your paper:
S.Grimme, J.Antony, S.Ehrlich and H.Krieg, J.Chem.Phys., 132, (2010), 154104 
   

XCFun DFT library Copyright 2009-2010 Ulf Ekstrom and contributors.
See http://admol.org/xcfun for more information. This is free soft-
ware; see the source code for copying conditions. There is ABSOLUTELY
NO WARRANTY; not even for MERCHANTABILITY or FITNESS FOR A PARTICULAR
PURPOSE. For details see the documentation. Scientific users of this 
library should cite U. Ekstrom, L. Visscher, R. Bast, A. J. Thorvald-
sen and K. Ruud; J.Chem.Theor.Comp. 2010, DOI: 10.1021/ct100117s
XCFun Version 0.99 
----- Orbital basis set information -----
Your calculation utilizes the basis: def2-SVP
   F. Weigend and R. Ahlrichs, Phys. Chem. Chem. Phys. 7, 3297 (2005).

================================================================================
                                        WARNINGS
                       Please study these warnings very carefully!
================================================================================


WARNING: your system is open-shell and RHF/RKS was chosen
  ===> : WILL SWITCH to UHF/UKS


WARNING: Geometry Optimization
  ===> : Switching off AutoStart
         For restart on a previous wavefunction, please use MOREAD

INFO   : the flag for use of LIBINT has been found!

================================================================================
                                       INPUT FILE
================================================================================
NAME = 029939062.inp
|  1> # ORCA input file
|  2> # -38.14268146
|  3> ! wB97X-D3 def2-SVP Opt
|  4> * xyz 0 2
|  5>    C        3.49610         1.62450        -0.00820
|  6>    C        2.41430         0.59370         0.00830
|  7>    C        2.69210        -0.76790         0.00460
|  8>    C        1.68660        -1.71680        -0.00020
|  9>    C        0.35730        -1.30820        -0.00140
| 10>    C        0.10140         0.04030         0.00060
| 11>    C        1.07320         0.99530         0.00610
| 12>    H        0.80240         2.03870         0.00760
| 13>    S       -1.71510         0.51900        -0.00020
| 14>    O       -2.10140        -0.10790         1.23520
| 15>    O       -2.10240        -0.10290        -1.23760
| 16>    O       -1.61650         1.95300         0.00280
| 17>    F       -0.61840        -2.20560        -0.00350
| 18>    H        1.90200        -2.77430        -0.00110
| 19>    H        3.72070        -1.09720         0.00650
| 20>    H        4.43110         1.20840         0.35680
| 21>    H        3.22420         2.47990         0.60430
| 22>    H        3.65360         1.97920        -1.02640
| 23> *
| 24> 
| 25>                          ****END OF INPUT****
================================================================================

                       *****************************
                       * Geometry Optimization Run *
                       *****************************

Geometry optimization settings:
Update method            Update   .... BFGS
Choice of coordinates    CoordSys .... Z-matrix Internals
Initial Hessian          InHess   .... Almoef's Model

Convergence Tolerances:
Energy Change            TolE     ....  5.0000e-06 Eh
Max. Gradient            TolMAXG  ....  3.0000e-04 Eh/bohr
RMS Gradient             TolRMSG  ....  1.0000e-04 Eh/bohr
Max. Displacement        TolMAXD  ....  4.0000e-03 bohr
RMS Displacement         TolRMSD  ....  2.0000e-03 bohr
Strict Convergence                ....  False
------------------------------------------------------------------------------
                        ORCA OPTIMIZATION COORDINATE SETUP
------------------------------------------------------------------------------

The optimization will be done in new redundant internal coordinates
Making redundant internal coordinates   ...  (new redundants) done
Evaluating the initial hessian          ...  (Almloef) done
Evaluating the coordinates              ...  done
Calculating the B-matrix                .... done
Calculating the G-matrix                .... done
Diagonalizing the G-matrix              .... done
The first mode is                       ....   36
The number of degrees of freedom        ....   48

    -----------------------------------------------------------------
                    Redundant Internal Coordinates


    -----------------------------------------------------------------
         Definition                    Initial Value    Approx d2E/dq
    -----------------------------------------------------------------
      1. B(C   1,C   0)                  1.4944         0.425832   
      2. B(C   2,C   1)                  1.3897         0.625589   
      3. B(C   3,C   2)                  1.3826         0.642115   
      4. B(C   4,C   3)                  1.3907         0.623235   
      5. B(C   5,C   4)                  1.3726         0.666118   
      6. B(C   6,C   5)                  1.3625         0.691174   
      7. B(C   6,C   1)                  1.3999         0.602389   
      8. B(H   7,C   6)                  1.0780         0.376372   
      9. B(S   8,C   5)                  1.8785         0.279968   
     10. B(O   9,S   8)                  1.4382         1.263948   
     11. B(O  10,S   8)                  1.4380         1.264796   
     12. B(O  11,S   8)                  1.4374         1.267760   
     13. B(F  12,C   4)                  1.3256         0.658641   
     14. B(H  13,C   3)                  1.0792         0.374654   
     15. B(H  14,C   2)                  1.0800         0.373537   
     16. B(H  15,C   0)                  1.0865         0.364694   
     17. B(H  16,C   0)                  1.0866         0.364567   
     18. B(H  17,C   0)                  1.0897         0.360556   
     19. A(C   1,C   0,H  17)          109.8460         0.331466   
     20. A(H  15,C   0,H  17)          108.3110         0.291477   
     21. A(C   1,C   0,H  16)          110.8326         0.332074   
     22. A(C   1,C   0,H  15)          110.7984         0.332093   
     23. A(H  16,C   0,H  17)          107.8558         0.291461   
     24. A(H  15,C   0,H  16)          109.1130         0.291985   
     25. A(C   0,C   1,C   6)          119.7091         0.403878   
     26. A(C   0,C   1,C   2)          122.0813         0.406583   
     27. A(C   2,C   1,C   6)          118.2017         0.432520   
     28. A(C   1,C   2,H  14)          119.2832         0.355647   
     29. A(C   3,C   2,H  14)          118.9068         0.357226   
     30. A(C   1,C   2,C   3)          121.8100         0.437521   
     31. A(C   2,C   3,C   4)          119.5725         0.437224   
     32. A(C   4,C   3,H  13)          118.5993         0.355600   
     33. A(C   2,C   3,H  13)          121.8282         0.357407   
     34. A(C   5,C   4,F  12)          121.8613         0.439653   
     35. A(C   3,C   4,F  12)          120.3074         0.434411   
     36. A(C   3,C   4,C   5)          117.8313         0.440129   
     37. A(C   4,C   5,C   6)          123.7554         0.448449   
     38. A(C   6,C   5,S   8)          120.7360         0.405155   
     39. A(C   4,C   5,S   8)          115.5084         0.402524   
     40. A(C   5,C   6,H   7)          119.9512         0.362200   
     41. A(C   1,C   6,H   7)          121.2197         0.353829   
     42. A(C   1,C   6,C   5)          118.8290         0.440360   
     43. A(O   9,S   8,O  10)          118.5741         0.627063   
     44. A(C   5,S   8,O  10)           98.6615         0.474227   
     45. A(C   5,S   8,O   9)           98.5277         0.474168   
     46. A(O  10,S   8,O  11)          116.8540         0.627430   
     47. A(O   9,S   8,O  11)          116.8396         0.627348   
     48. A(C   5,S   8,O  11)          100.8300         0.474431   
     49. D(C   2,C   1,C   0,H  15)    -21.8955         0.013398   
     50. D(C   2,C   1,C   0,H  17)     97.7338         0.013398   
     51. D(C   6,C   1,C   0,H  16)     37.8613         0.013398   
     52. D(C   2,C   1,C   0,H  16)   -143.1801         0.013398   
     53. D(C   6,C   1,C   0,H  17)    -81.2249         0.013398   
     54. D(C   6,C   1,C   0,H  15)    159.1458         0.013398   
     55. D(C   3,C   2,C   1,C   0)   -179.0182         0.027111   
     56. D(C   3,C   2,C   1,C   6)     -0.0445         0.027111   
     57. D(H  14,C   2,C   1,C   0)      1.0434         0.027111   
     58. D(H  14,C   2,C   1,C   6)   -179.9829         0.027111   
     59. D(H  13,C   3,C   2,C   1)   -179.8766         0.028660   
     60. D(C   4,C   3,C   2,H  14)    179.9387         0.028660   
     61. D(H  13,C   3,C   2,H  14)      0.0619         0.028660   
     62. D(C   4,C   3,C   2,C   1)      0.0001         0.028660   
     63. D(F  12,C   4,C   3,H  13)      0.0051         0.026895   
     64. D(F  12,C   4,C   3,C   2)   -179.8756         0.026895   
     65. D(C   5,C   4,C   3,H  13)    179.9609         0.026895   
     66. D(C   5,C   4,C   3,C   2)      0.0802         0.026895   
     67. D(S   8,C   5,C   4,F  12)     -0.0119         0.031005   
     68. D(S   8,C   5,C   4,C   3)   -179.9669         0.031005   
     69. D(C   6,C   5,C   4,F  12)    179.8326         0.031005   
     70. D(C   6,C   5,C   4,C   3)     -0.1224         0.031005   
     71. D(H   7,C   6,C   5,S   8)     -0.1504         0.033575   
     72. D(H   7,C   6,C   5,C   4)   -179.9871         0.033575   
     73. D(C   1,C   6,C   5,S   8)    179.9154         0.033575   
     74. D(C   1,C   6,C   5,C   4)      0.0787         0.033575   
     75. D(H   7,C   6,C   1,C   2)   -179.9264         0.025026   
     76. D(H   7,C   6,C   1,C   0)     -0.9276         0.025026   
     77. D(C   5,C   6,C   1,C   2)      0.0069         0.025026   
     78. D(C   5,C   6,C   1,C   0)    179.0058         0.025026   
     79. D(O   9,S   8,C   5,C   4)     60.4065         0.002850   
     80. D(O  11,S   8,C   5,C   6)      0.1282         0.002850   
     81. D(O  11,S   8,C   5,C   4)    179.9777         0.002850   
     82. D(O  10,S   8,C   5,C   6)    119.7556         0.002850   
     83. D(O  10,S   8,C   5,C   4)    -60.3948         0.002850   
     84. D(O   9,S   8,C   5,C   6)   -119.4431         0.002850   
    -----------------------------------------------------------------

Number of atoms                         .... 18
Number of degrees of freedom            .... 84

         *************************************************************
         *                GEOMETRY OPTIMIZATION CYCLE   1            *
         *************************************************************
---------------------------------
CARTESIAN COORDINATES (ANGSTROEM)
---------------------------------
  C      3.496100    1.624500   -0.008200
  C      2.414300    0.593700    0.008300
  C      2.692100   -0.767900    0.004600
  C      1.686600   -1.716800   -0.000200
  C      0.357300   -1.308200   -0.001400
  C      0.101400    0.040300    0.000600
  C      1.073200    0.995300    0.006100
  H      0.802400    2.038700    0.007600
  S     -1.715100    0.519000   -0.000200
  O     -2.101400   -0.107900    1.235200
  O     -2.102400   -0.102900   -1.237600
  O     -1.616500    1.953000    0.002800
  F     -0.618400   -2.205600   -0.003500
  H      1.902000   -2.774300   -0.001100
  H      3.720700   -1.097200    0.006500
  H      4.431100    1.208400    0.356800
  H      3.224200    2.479900    0.604300
  H      3.653600    1.979200   -1.026400

----------------------------
CARTESIAN COORDINATES (A.U.)
----------------------------
  NO LB      ZA    FRAG     MASS         X           Y           Z
   0 C     6.0000    0    12.011    6.606672    3.069860   -0.015496
   1 C     6.0000    0    12.011    4.562366    1.121930    0.015685
   2 C     6.0000    0    12.011    5.087332   -1.451121    0.008693
   3 C     6.0000    0    12.011    3.187212   -3.244282   -0.000378
   4 C     6.0000    0    12.011    0.675199   -2.472140   -0.002646
   5 C     6.0000    0    12.011    0.191618    0.076156    0.001134
   6 C     6.0000    0    12.011    2.028054    1.880844    0.011527
   7 H     1.0000    0     1.008    1.516316    3.852585    0.014362
   8 S    16.0000    0    32.060   -3.241069    0.980768   -0.000378
   9 O     8.0000    0    15.999   -3.971070   -0.203901    2.334190
  10 O     8.0000    0    15.999   -3.972960   -0.194453   -2.338725
  11 O     8.0000    0    15.999   -3.054742    3.690635    0.005291
  12 F     9.0000    0    18.998   -1.168607   -4.167980   -0.006614
  13 H     1.0000    0     1.008    3.594259   -5.242667   -0.002079
  14 H     1.0000    0     1.008    7.031104   -2.073408    0.012283
  15 H     1.0000    0     1.008    8.373565    2.283545    0.674254
  16 H     1.0000    0     1.008    6.092855    4.686332    1.141962
  17 H     1.0000    0     1.008    6.904303    3.740146   -1.939615

--------------------------------
INTERNAL COORDINATES (ANGSTROEM)
--------------------------------
 C      0   0   0     0.000000000000     0.00000000     0.00000000
 C      1   0   0     1.494360107203     0.00000000     0.00000000
 C      2   1   0     1.389655025537   122.08130588     0.00000000
 C      3   2   1     1.382557232088   121.80995631   180.98176597
 C      4   3   2     1.390681088532   119.57245633     0.00000000
 C      5   4   3     1.372567324396   117.83129612     0.08015270
 C      6   5   4     1.362516234766   123.75544764   359.87759848
 H      7   6   5     1.077969596046   119.95119580   180.01290216
 S      6   5   4     1.878517122626   115.50841210   180.03311064
 O      9   6   5     1.438208767878    98.52770395    60.40651276
 O      9   6   5     1.438026307131    98.66153747   299.60515574
 O      9   6   5     1.437388938318   100.82996395   179.97772749
 F      5   4   3     1.325640094445   120.30736939   180.12442722
 H      4   3   2     1.079214631109   121.82816538   180.12336559
 H      3   2   1     1.080027805198   119.28316601     1.04342189
 H      1   2   3     1.086549221158   110.79844983   338.10445557
 H      1   2   3     1.086643925120   110.83256566   216.81992460
 H      1   2   3     1.089655716270   109.84595784    97.73381233

---------------------------
INTERNAL COORDINATES (A.U.)
---------------------------
 C      0   0   0     0.000000000000     0.00000000     0.00000000
 C      1   0   0     2.823931348071     0.00000000     0.00000000
 C      2   1   0     2.626067418892   122.08130588     0.00000000
 C      3   2   1     2.612654533119   121.80995631   180.98176597
 C      4   3   2     2.628006396949   119.57245633     0.00000000
 C      5   4   3     2.593776343478   117.83129612     0.08015270
 C      6   5   4     2.574782536729   123.75544764   359.87759848
 H      7   6   5     2.037067317221   119.95119580   180.01290216
 S      6   5   4     3.549882899645   115.50841210   180.03311064
 O      9   6   5     2.717820694693    98.52770395    60.40651276
 O      9   6   5     2.717475893851    98.66153747   299.60515574
 O      9   6   5     2.716271441350   100.82996395   179.97772749
 F      5   4   3     2.505096730646   120.30736939   180.12442722
 H      4   3   2     2.039420092517   121.82816538   180.12336559
 H      3   2   1     2.040956768844   119.28316601     1.04342189
 H      1   2   3     2.053280459015   110.79844983   338.10445557
 H      1   2   3     2.053459423566   110.83256566   216.81992460
 H      1   2   3     2.059150884012   109.84595784    97.73381233

---------------------
BASIS SET INFORMATION
---------------------
There are 5 groups of distinct atoms

 Group   1 Type C   : 7s4p1d contracted to 3s2p1d pattern {511/31/1}
 Group   2 Type H   : 4s1p contracted to 2s1p pattern {31/1}
 Group   3 Type S   : 10s7p1d contracted to 4s3p1d pattern {5311/511/1}
 Group   4 Type O   : 7s4p1d contracted to 3s2p1d pattern {511/31/1}
 Group   5 Type F   : 7s4p1d contracted to 3s2p1d pattern {511/31/1}

Atom   0C    basis set group =>   1
Atom   1C    basis set group =>   1
Atom   2C    basis set group =>   1
Atom   3C    basis set group =>   1
Atom   4C    basis set group =>   1
Atom   5C    basis set group =>   1
Atom   6C    basis set group =>   1
Atom   7H    basis set group =>   2
Atom   8S    basis set group =>   3
Atom   9O    basis set group =>   4
Atom  10O    basis set group =>   4
Atom  11O    basis set group =>   4
Atom  12F    basis set group =>   5
Atom  13H    basis set group =>   2
Atom  14H    basis set group =>   2
Atom  15H    basis set group =>   2
Atom  16H    basis set group =>   2
Atom  17H    basis set group =>   2
------------------------------------------------------------------------------
                           ORCA GTO INTEGRAL CALCULATION
------------------------------------------------------------------------------

                         BASIS SET STATISTICS AND STARTUP INFO

 # of primitive gaussian shells          ...  180
 # of primitive gaussian functions       ...  342
 # of contracted shells                  ...   92
 # of contracted basis functions         ...  202
 Highest angular momentum                ...    2
 Maximum contraction depth               ...    5
 Integral package used                   ... LIBINT
 Integral threshhold            Thresh   ...  2.500e-11
 Primitive cut-off              TCut     ...  2.500e-12


------------------------------ INTEGRAL EVALUATION ----------------------------


 * One electron integrals 
 Pre-screening matrix                    ... done
 Shell pair data                         ... done (   0.001 sec)

-------------------------------------------------------------------------------
                                 ORCA SCF
-------------------------------------------------------------------------------

------------
SCF SETTINGS
------------
Hamiltonian:
 Density Functional     Method          .... DFT(GTOs)
 Exchange Functional    Exchange        .... WB97X-D3
 Correlation Functional Correlation     .... WB97X-D3
 Gradients option       PostSCFGGA      .... off
 Hybrid DFT is turned on
   Fraction HF Exchange ScalHFX         ....  0.195728
   Scaling of DF-GGA-X  ScalDFX         ....  0.000000
   Scaling of DF-GGA-C  ScalDFC         ....  1.000000
   Scaling of DF-LDA-C  ScalLDAC        ....  1.000000
   Perturbative correction              ....  0.000000
   Density functional embedding theory  .... OFF
 Long-range corrected/Screened/Range-Separated Hybrid DFT is turned on
   Amount of maximum screened exact exchange              ....  0.804272
   Range separation parameter mu (erf(mu*r12)/r12)        ....  0.250000


General Settings:
 Integral files         IntName         .... 029939062
 Hartree-Fock type      HFTyp           .... UHF
 Total Charge           Charge          ....    0
 Multiplicity           Mult            ....    2
 Number of Electrons    NEL             ....   97
 Basis Dimension        Dim             ....  202
 Nuclear Repulsion      ENuc            ....    848.3080921400 Eh

Convergence Acceleration:
 DIIS                   CNVDIIS         .... on
   Start iteration      DIISMaxIt       ....    12
   Startup error        DIISStart       ....  0.200000
   # of expansion vecs  DIISMaxEq       ....     5
   Bias factor          DIISBfac        ....   1.050
   Max. coefficient     DIISMaxC        ....  10.000
 Newton-Raphson         CNVNR           .... off
 SOSCF                  CNVSOSCF        .... off
 Level Shifting         CNVShift        .... on
   Level shift para.    LevelShift      ....    0.2500
   Turn off err/grad.   ShiftErr        ....    0.0010
 Zerner damping         CNVZerner       .... off
 Static damping         CNVDamp         .... on
   Fraction old density DampFac         ....    0.7000
   Max. Damping (<1)    DampMax         ....    0.9800
   Min. Damping (>=0)   DampMin         ....    0.0000
   Turn off err/grad.   DampErr         ....    0.1000
 Fernandez-Rico         CNVRico         .... off

SCF Procedure:
 Maximum # iterations   MaxIter         ....   125
 SCF integral mode      SCFMode         .... Direct
   Integral package                     .... LIBINT
 Reset frequency        DirectResetFreq ....    20
 Integral Threshold     Thresh          ....  2.500e-11 Eh
 Primitive CutOff       TCut            ....  2.500e-12 Eh

Convergence Tolerance:
 Convergence Check Mode ConvCheckMode   .... Total+1el-Energy
 Convergence forced     ConvForced      .... 0
 Energy Change          TolE            ....  1.000e-08 Eh
 1-El. energy change                    ....  1.000e-05 Eh
 DIIS Error             TolErr          ....  5.000e-07


Diagonalization of the overlap matrix:
Smallest eigenvalue                        ... 2.287e-04
Time for diagonalization                   ...    0.107 sec
Threshold for overlap eigenvalues          ... 1.000e-08
Number of eigenvalues below threshold      ... 0
Time for construction of square roots      ...    0.003 sec
Total time needed                          ...    0.110 sec

-------------------
DFT GRID GENERATION
-------------------

General Integration Accuracy     IntAcc      ...  4.340
Radial Grid Type                 RadialGrid  ... Gauss-Chebyshev
Angular Grid (max. acc.)         AngularGrid ... Lebedev-110
Angular grid pruning method      GridPruning ... 3 (G Style)
Weight generation scheme         WeightScheme... Becke
Basis function cutoff            BFCut       ...    1.0000e-11
Integration weight cutoff        WCut        ...    1.0000e-14
Grids for H and He will be reduced by one unit

# of grid points (after initial pruning)     ...  25050 (   0.0 sec)
# of grid points (after weights+screening)   ...  23173 (   0.1 sec)
nearest neighbour list constructed           ...    0.0 sec
Grid point re-assignment to atoms done       ...    0.0 sec
Grid point division into batches done        ...    0.0 sec
Reduced shell lists constructed in    0.2 sec

Total number of grid points                  ...    23173
Total number of batches                      ...      369
Average number of points per batch           ...       62
Average number of grid points per atom       ...     1287
Average number of shells per batch           ...    57.11 (62.08%)
Average number of basis functions per batch  ...   123.98 (61.37%)
Average number of large shells per batch     ...    42.55 (74.50%)
Average number of large basis fcns per batch ...    91.45 (73.77%)
Maximum spatial batch extension              ...  19.22, 25.55, 20.95 au
Average spatial batch extension              ...   3.54,  3.62,  3.83 au

Time for grid setup =    0.226 sec

------------------------------
INITIAL GUESS: MODEL POTENTIAL
------------------------------
Loading Hartree-Fock densities                     ... done
Calculating cut-offs                               ... done
Setting up the integral package                    ... done
Initializing the effective Hamiltonian             ... done
Starting the Coulomb interaction                   ... done (   0.1 sec)
Reading the grid                                   ... done
Mapping shells                                     ... done
Starting the XC term evaluation                    ... done (   0.2 sec)
  promolecular density results
     # of electrons  =     96.992048931
     EX              =    -97.078292902
     EC              =     -3.392510450
     EX+EC           =   -100.470803352
Transforming the Hamiltonian                       ... done (   0.0 sec)
Diagonalizing the Hamiltonian                      ... done (   0.0 sec)
Back transforming the eigenvectors                 ... done (   0.0 sec)
Now organizing SCF variables                       ... done
                      ------------------
                      INITIAL GUESS DONE (   0.7 sec)
                      ------------------
--------------
SCF ITERATIONS
--------------
ITER       Energy         Delta-E        Max-DP      RMS-DP      [F,P]     Damp
               ***  Starting incremental Fock matrix formation  ***
  0   -992.7295827250   0.000000000000 0.07255959  0.00134372  0.2744913 0.7000
  1   -992.9007634781  -0.171180753114 0.03944296  0.00092460  0.1335988 0.7000
                               ***Turning on DIIS***
  2   -992.9751240578  -0.074360579609 0.04833136  0.00167617  0.0503810 0.0000
  3   -993.1001857667  -0.125061708977 0.03627835  0.00061342  0.0682245 0.0000
  4   -993.1212026614  -0.021016894664 0.00639315  0.00015119  0.0075565 0.0000
  5   -993.1221897200  -0.000987058626 0.00346859  0.00007829  0.0036143 0.0000
  6   -993.1226493669  -0.000459646900 0.00278353  0.00006164  0.0022226 0.0000
  7   -993.1229873800  -0.000338013101 0.00272497  0.00005887  0.0018339 0.0000
  8   -993.1232832493  -0.000295869312 0.00252903  0.00005694  0.0015922 0.0000
  9   -993.1235482174  -0.000264968052 0.00246253  0.00005468  0.0014944 0.0000
 10   -993.1237910572  -0.000242839854 0.00340360  0.00007440  0.0013223 0.0000
 11   -993.1240859913  -0.000294934047 0.00203580  0.00004058  0.0012304 0.0000
 12   -993.1242535382  -0.000167546927 0.00535227  0.00012022  0.0013016 0.0000
 13   -993.1246103901  -0.000356851840 0.00203551  0.00004199  0.0016740 0.0000
 14   -993.1247660502  -0.000155660098 0.00655311  0.00014622  0.0010210 0.0000
 15   -993.1250703539  -0.000304303790 0.00128038  0.00003164  0.0020497 0.0000
 16   -993.1251754727  -0.000105118766 0.01186739  0.00023956  0.0009387 0.0000
 17   -993.1255108303  -0.000335357625 0.00166352  0.00003659  0.0008297 0.0000
 18   -993.1255003072   0.000010523169 0.00353267  0.00007067  0.0003724 0.0000
 19   -993.1255603451  -0.000060037902 0.00141243  0.00003612  0.0003487 0.0000
               *** Restarting incremental Fock matrix formation ***
                                   *** Resetting DIIS ***
 20   -993.1255954395  -0.000035094426 0.00066212  0.00001782  0.0002997 0.0000
 21   -993.1256118278  -0.000016388317 0.00045378  0.00001186  0.0002545 0.0000
 22   -993.1256226283  -0.000010800516 0.00055392  0.00001413  0.0002913 0.0000
 23   -993.1256357273  -0.000013098960 0.00013955  0.00000352  0.0002619 0.0000
 24   -993.1256389406  -0.000003213288 0.00011328  0.00000285  0.0002624 0.0000
 25   -993.1256415675  -0.000002626906 0.00010249  0.00000261  0.0002629 0.0000
 26   -993.1256391514   0.000002416049 0.00111129  0.00002820  0.0002624 0.0000
 27   -993.1256651324  -0.000025981014 0.00047047  0.00001190  0.0002668 0.0000
 28   -993.1256760284  -0.000010895922 0.00051287  0.00001290  0.0002692 0.0000
 29   -993.1256640991   0.000011929288 0.00020879  0.00000525  0.0002670 0.0000
 30   -993.1256689592  -0.000004860114 0.00020892  0.00000526  0.0002679 0.0000
 31   -993.1256738322  -0.000004873025 0.00034016  0.00000857  0.0002688 0.0000
 32   -993.1256817955  -0.000007963236 0.00039385  0.00001003  0.0002702 0.0000
 33   -993.1256910450  -0.000009249532 0.00043726  0.00001108  0.0002719 0.0000
 34   -993.1257012799  -0.000010234954 0.00060036  0.00001509  0.0002734 0.0000
 35   -993.1256872005   0.000014079411 0.00039976  0.00001006  0.0002711 0.0000
 36   -993.1256965914  -0.000009390837 0.00033608  0.00000847  0.0002727 0.0000
 37   -993.1257045238  -0.000007932401 0.00019768  0.00000498  0.0002740 0.0000
 38   -993.1257092040  -0.000004680248 0.00060658  0.00001541  0.0002747 0.0000
 39   -993.1257236749  -0.000014470852 0.00040418  0.00001032  0.0002778 0.0000
               *** Restarting incremental Fock matrix formation ***
                                   *** Resetting DIIS ***
 40   -993.1257333141  -0.000009639204 0.00071357  0.00001822  0.0002784 0.0000
 41   -993.1257505989  -0.000017284812 0.00052777  0.00001360  0.0002827 0.0000
 42   -993.1257634734  -0.000012874489 0.00013658  0.00000350  0.0002826 0.0000
 43   -993.1257601468   0.000003326615 0.00000651  0.00000017  0.0002824 0.0000
 44   -993.1257599876   0.000000159202 0.00000698  0.00000018  0.0002824 0.0000
 45   -993.1257598167   0.000000170850 0.00049454  0.00001266  0.0002823 0.0000
 46   -993.1257719965  -0.000012179785 0.00058697  0.00001516  0.0002841 0.0000
 47   -993.1257866143  -0.000014617852 0.00043691  0.00001139  0.0002884 0.0000
 48   -993.1257975523  -0.000010937963 0.00137275  0.00003533  0.0002876 0.0000
 49   -993.1257633887   0.000034163639 0.00045384  0.00001166  0.0002828 0.0000
 50   -993.1257745983  -0.000011209636 0.00052322  0.00001347  0.0002845 0.0000
 51   -993.1257876346  -0.000013036331 0.00029055  0.00000750  0.0002864 0.0000
 52   -993.1257949308  -0.000007296196 0.00023293  0.00000615  0.0002875 0.0000
 53   -993.1257891186   0.000005812229 0.00056928  0.00001475  0.0002888 0.0000
 54   -993.1258034294  -0.000014310788 0.00030598  0.00000795  0.0002887 0.0000
 55   -993.1257956743   0.000007755063 0.00039426  0.00001022  0.0002873 0.0000
 56   -993.1258056475  -0.000009973174 0.00003785  0.00000098  0.0002887 0.0000
 57   -993.1258065996  -0.000000952082 0.00010575  0.00000276  0.0002887 0.0000
 58   -993.1258092980  -0.000002698388 0.00042632  0.00001125  0.0002891 0.0000
 59   -993.1258202476  -0.000010949598 0.00059612  0.00001567  0.0002941 0.0000
               *** Restarting incremental Fock matrix formation ***
                                   *** Resetting DIIS ***
 60   -993.1258355664  -0.000015318869 0.00072979  0.00001940  0.0003172 0.0000
 61   -993.1258547203  -0.000019153875 0.00052082  0.00001401  0.0003008 0.0000
 62   -993.1258685270  -0.000013806737 0.00012192  0.00000325  0.0003424 0.0000
 63   -993.1258653028   0.000003224234 0.00000533  0.00000014  0.0003143 0.0000
 64   -993.1258651616   0.000000141201 0.00000568  0.00000015  0.0003145 0.0000
 65   -993.1258650110   0.000000150583 0.00050792  0.00001353  0.0003147 0.0000
 66   -993.1258786348  -0.000013623753 0.00051762  0.00001406  0.0003144 0.0000
 67   -993.1258927129  -0.000014078082 0.00042578  0.00001167  0.0003064 0.0000
 68   -993.1259043588  -0.000011645987 0.00125177  0.00003365  0.0003346 0.0000
 69   -993.1258703075   0.000034051352 0.00044758  0.00001199  0.0003260 0.0000
 70   -993.1258823828  -0.000012075349 0.00054320  0.00001461  0.0003197 0.0000
 71   -993.1258971927  -0.000014809844 0.00027735  0.00000749  0.0003179 0.0000
 72   -993.1259048275  -0.000007634856 0.00037377  0.00001038  0.0003160 0.0000
 73   -993.1259152153  -0.000010387710 0.00036819  0.00001027  0.0003103 0.0000
 74   -993.1259254773  -0.000010262061 0.00077894  0.00002121  0.0003473 0.0000
 75   -993.1259037828   0.000021694478 0.00058210  0.00001581  0.0003318 0.0000
 76   -993.1259199618  -0.000016178998 0.00035597  0.00000972  0.0003324 0.0000
 77   -993.1259299717  -0.000010009842 0.00007078  0.00000194  0.0003318 0.0000
 78   -993.1259319656  -0.000001993969 0.00023580  0.00000691  0.0003359 0.0000
 79   -993.1259386783  -0.000006712612 0.00040650  0.00001144  0.0003149 0.0000
               *** Restarting incremental Fock matrix formation ***
                                   *** Resetting DIIS ***
 80   -993.1259502439  -0.000011565649 0.00074230  0.00002082  0.0003780 0.0000
 81   -993.1259717761  -0.000021532168 0.00051862  0.00001482  0.0003224 0.0000
 82   -993.1259870771  -0.000015301053 0.00015002  0.00000422  0.0004070 0.0000
 83   -993.1259826602   0.000004416952 0.00000788  0.00000022  0.0003767 0.0000
 84   -993.1259824259   0.000000234233 0.00000850  0.00000024  0.0003768 0.0000
 85   -993.1259821732   0.000000252730 0.00054802  0.00001544  0.0003770 0.0000
 86   -993.1259985114  -0.000016338211 0.00045344  0.00001315  0.0003776 0.0000
 87   -993.1260122137  -0.000013702315 0.00042042  0.00001231  0.0003290 0.0000
 88   -993.1260250657  -0.000012851918 0.00119696  0.00003412  0.0004052 0.0000
 89   -993.1259887948   0.000036270899 0.00044695  0.00001269  0.0003953 0.0000
 90   -993.1260022155  -0.000013420694 0.00055648  0.00001588  0.0003893 0.0000
 91   -993.1260191344  -0.000016918955 0.00025925  0.00000744  0.0003889 0.0000
 92   -993.1260271061  -0.000007971640 0.00031345  0.00000942  0.0003866 0.0000
 93   -993.1260368037  -0.000009697632 0.00035794  0.00001061  0.0003338 0.0000
 94   -993.1260478478  -0.000011044143 0.00063767  0.00001847  0.0004256 0.0000
 95   -993.1260279754   0.000019872466 0.00058993  0.00001705  0.0004094 0.0000
 96   -993.1260463508  -0.000018375470 0.00030745  0.00000895  0.0004123 0.0000
 97   -993.1260560525  -0.000009701651 0.00000912  0.00000028  0.0004128 0.0000
 98   -993.1260557505   0.000000301980 0.00043958  0.00001320  0.0004206 0.0000
 99   -993.1260697631  -0.000014012591 0.00038762  0.00001145  0.0003404 0.0000
               *** Restarting incremental Fock matrix formation ***
                                   *** Resetting DIIS ***
100   -993.1260818736  -0.000012110540 0.00075467  0.00002254  0.0004633 0.0000
101   -993.1261064030  -0.000024529354 0.00053867  0.00001583  0.0003697 0.0000
102   -993.1261236288  -0.000017225840 0.00014387  0.00000420  0.0005006 0.0000
103   -993.1261189993   0.000004629499 0.00000736  0.00000022  0.0004655 0.0000
104   -993.1261187588   0.000000240499 0.00000790  0.00000023  0.0004656 0.0000
105   -993.1261185006   0.000000258210 0.00056971  0.00001667  0.0004657 0.0000
106   -993.1261371288  -0.000018628162 0.00042580  0.00001315  0.0004669 0.0000
107   -993.1261514542  -0.000014325395 0.00043984  0.00001300  0.0003575 0.0000
108   -993.1261657386  -0.000014284417 0.00112840  0.00003316  0.0004959 0.0000
109   -993.1261284823   0.000037256280 0.00043413  0.00001277  0.0004809 0.0000
110   -993.1261427589  -0.000014276614 0.00057108  0.00001678  0.0004760 0.0000
111   -993.1261616651  -0.000018906191 0.00024221  0.00000712  0.0004769 0.0000
112   -993.1261697387  -0.000008073546 0.00024794  0.00000784  0.0004752 0.0000
113   -993.1261778673  -0.000008128652 0.00037293  0.00001112  0.0003620 0.0000
114   -993.1261900313  -0.000012163964 0.00044465  0.00001312  0.0005191 0.0000
115   -993.1261751199   0.000014911335 0.00058719  0.00001729  0.0004982 0.0000
116   -993.1261948634  -0.000019743428 0.00007547  0.00000221  0.0005020 0.0000
117   -993.1261973929  -0.000002529543 0.00019280  0.00000570  0.0005141 0.0000
118   -993.1262039230  -0.000006530079 0.00024830  0.00000674  0.0005157 0.0000
119   -993.1262105926  -0.000006669639 0.00050847  0.00001502  0.0003692 0.0000
               *** Restarting incremental Fock matrix formation ***
                                   *** Resetting DIIS ***
120   -993.1262275447  -0.000016952042 0.00080074  0.00002449  0.0005552 0.0000
121   -993.1262556565  -0.000028111824 0.00055707  0.00001652  0.0004007 0.0000
122   -993.1262746903  -0.000019033787 0.00008170  0.00000241  0.0005778 0.0000
123   -993.1262719086   0.000002781713 0.00000243  0.00000007  0.0005323 0.0000
124   -993.1262718242   0.000000084368 0.00000254  0.00000008  0.0005325 0.0000

               *****************************************************
               *                      ERROR                        *
               *        SCF NOT CONVERGED AFTER 125 CYCLES         *
               *****************************************************

Setting up the final grid:

General Integration Accuracy     IntAcc      ...  4.670
Radial Grid Type                 RadialGrid  ... Gauss-Chebyshev
Angular Grid (max. acc.)         AngularGrid ... Lebedev-302
Angular grid pruning method      GridPruning ... 3 (G Style)
Weight generation scheme         WeightScheme... Becke
Basis function cutoff            BFCut       ...    1.0000e-11
Integration weight cutoff        WCut        ...    1.0000e-14
Grids for H and He will be reduced by one unit

# of grid points (after initial pruning)     ...  95602 (   0.0 sec)
# of grid points (after weights+screening)   ...  87089 (   0.2 sec)
nearest neighbour list constructed           ...    0.0 sec
Grid point re-assignment to atoms done       ...    0.0 sec
Grid point division into batches done        ...    0.3 sec
Reduced shell lists constructed in    0.8 sec

Total number of grid points                  ...    87089
Total number of batches                      ...     1370
Average number of points per batch           ...       63
Average number of grid points per atom       ...     4838
Average number of shells per batch           ...    52.02 (56.54%)
Average number of basis functions per batch  ...   112.00 (55.45%)
Average number of large shells per batch     ...    38.14 (73.33%)
Average number of large basis fcns per batch ...    81.09 (72.40%)
Maximum spatial batch extension              ...  18.93, 16.70, 17.31 au
Average spatial batch extension              ...   2.41,  2.43,  2.47 au

Final grid set up in    1.1 sec
Final integration                            ... done (   1.7 sec)
Change in XC energy                          ...     0.001905311
Integrated number of electrons               ...    97.000111641
Previous integrated no of electrons          ...    96.997551941

---------------
SCF CONVERGENCE
---------------

  Last Energy change         ...    8.4368e-08  Tolerance :   1.0000e-08
  Last MAX-Density change    ...    2.5374e-06  Tolerance :   1.0000e-07
  Last RMS-Density change    ...    7.5903e-08  Tolerance :   5.0000e-09
  Last DIIS Error            ...    5.3248e-04  Tolerance :   5.0000e-07

             **** DENSITY FILE WAS UPDATED (029939062.scfp) ****
             **** ENERGY FILE WAS UPDATED (029939062.en.tmp) ****

     --------------------------------------------------------------------
                                      WARNING
     The wavefunction IS NOT YET CONVERGED! It shows however signs of
     convergence. Therefore the wavefunction will be stored and can be
     used as input for another calculation. 
     DO NOT USE THIS WAVEFUNCTION  FOR ANYHTING ELSE. It is NOT RELIABLE
     --------------------------------------------------------------------

-------
TIMINGS
-------

Total SCF time: 0 days 0 hours 17 min 14 sec 

Total time                  ....    1034.131 sec
Sum of individual times     ....    1033.432 sec  ( 99.9%)

Fock matrix formation       ....    1029.894 sec  ( 99.6%)
  XC integration            ....      54.607 sec  (  5.3% of F)
    Basis function eval.    ....      12.777 sec  ( 23.4% of XC)
    Density eval.           ....      11.697 sec  ( 21.4% of XC)
    XC-Functional eval.     ....      11.516 sec  ( 21.1% of XC)
    XC-Potential eval.      ....      17.322 sec  ( 31.7% of XC)
Diagonalization             ....       1.196 sec  (  0.1%)
Density matrix formation    ....       0.159 sec  (  0.0%)
Population analysis         ....       0.000 sec  (  0.0%)
Initial guess               ....       0.463 sec  (  0.0%)
Orbital Transformation      ....       0.000 sec  (  0.0%)
Orbital Orthonormalization  ....       0.000 sec  (  0.0%)
DIIS solution               ....       0.443 sec  (  0.0%)
Grid generation             ....       1.277 sec  (  0.1%)


-------------------------------------------------------------------------------
                          DFT DISPERSION CORRECTION                            
                                                                               
                              DFTD3 V3.1  Rev 1                                
                              USING zero damping                               
-------------------------------------------------------------------------------
The omegaB97X-D3 functional is recognized. Fit by Chai et al.
Active option DFTDOPT                   ...         3   

molecular C6(AA) [au] = 4761.252184 


            DFT-D V3
 parameters
 s6 scaling factor         :     1.0000 
 rs6 scaling factor        :     1.2810 
 s8 scaling factor         :     1.0000 
 rs8 scaling factor        :     1.0940 
 Damping factor alpha6     :    14.0000 
 Damping factor alpha8     :    16.0000 
 ad hoc parameters k1-k3   :    16.0000     1.3333    -4.0000 

 Edisp/kcal,au: -4.051458742729  -0.006456409788 
 E6   /kcal   :  -1.659074179 
 E8   /kcal   :  -2.392384564 
 % E8         :  59.049954989 

-------------------------   ----------------
Dispersion correction           -0.006456410
-------------------------   ----------------


-------------------------   --------------------
FINAL SINGLE POINT ENERGY      -993.130822923366   (Wavefunction not fully converged!)
-------------------------   --------------------

------------------------------------------------------------------------------
                         ORCA SCF GRADIENT CALCULATION
------------------------------------------------------------------------------

Gradient of the Kohn-Sham DFT energy:
Kohn-Sham wavefunction type      ... UKS
Hartree-Fock exchange scaling    ...    0.196
Number of operators              ...    2
Number of atoms                  ...   18
Basis set dimensions             ...  202
Integral neglect threshold       ... 2.5e-11
Integral primitive cutoff        ... 2.5e-12

Nuclear repulsion gradient       ... done
One Electron Gradient            ... done
Pre-screening matrix             ... done
Starting the two electron gradient:
Two electron gradient done
Exchange-correlation gradient    ... done
Dispersion correction            ... done

------------------
CARTESIAN GRADIENT
------------------

   1   C   :    0.002544122    0.009396618   -0.001842850
   2   C   :    0.016454649   -0.039901518    0.000553390
   3   C   :    0.004376406    0.032796876    0.000273572
   4   C   :   -0.007998877    0.008989438    0.001437281
   5   C   :   -0.007143097    0.045658983   -0.000469968
   6   C   :    0.071963040   -0.035543864   -0.002307868
   7   C   :   -0.030428162    0.003044129   -0.001977299
   8   H   :    0.005756701   -0.009276153   -0.000304648
   9   S   :   -0.079569069   -0.019742096    0.010919104
  10   O   :    0.024492201    0.023370648   -0.033214404
  11   O   :    0.027310250    0.020214226    0.027068930
  12   O   :    0.012058738   -0.027161897   -0.000902151
  13   F   :   -0.018707773   -0.015973645   -0.000628325
  14   H   :   -0.003959326    0.008906876   -0.000176021
  15   H   :   -0.008947807    0.003651495   -0.000388367
  16   H   :   -0.008401592    0.001494565   -0.002048775
  17   H   :    0.001981139   -0.006818789   -0.003896855
  18   H   :   -0.001781544   -0.003105892    0.007905255

Difference to translation invariance:
           :   -0.0000000000   -0.0000000000    0.0000000000

Norm of the cartesian gradient     ...    0.1603666972
RMS gradient                       ...    0.0218231433
MAX gradient                       ...    0.0795690690

-------
TIMINGS
-------

Total SCF gradient time            ...       45.491 sec

One electron gradient       ....       0.144 sec  (  0.3%)
Prescreening matrices       ....       0.108 sec  (  0.2%)
Two electron gradient       ....      39.370 sec  ( 86.5%)
XC gradient                 ....       5.726 sec  ( 12.6%)
------------------------------------------------------------------------------
                         ORCA GEOMETRY RELAXATION STEP
------------------------------------------------------------------------------

Reading the OPT-File                    .... done
Getting information on internals        .... done
Copying old internal coords+grads       .... done
Making the new internal coordinates     .... (new redundants).... done
Validating the new internal coordinates .... (new redundants).... done
Calculating the B-matrix                .... done
Calculating the G,G- and P matrices     .... done
Transforming gradient to internals      .... done
Projecting the internal gradient        .... done
Number of atoms                         ....  18
Number of internal coordinates          ....  84
Current Energy                          ....  -993.130822923 Eh
Current gradient norm                   ....     0.160366697 Eh/bohr
Maximum allowed component of the step   ....  0.300
Current trust radius                    ....  0.300
Evaluating the initial hessian          ....  (Almloef) done
Projecting the Hessian                  .... done
Forming the augmented Hessian           .... done
Diagonalizing the augmented Hessian     .... done
Last element of RFO vector              ....  0.979846492
Lowest eigenvalues of augmented Hessian:
 -0.023108686  0.002853942  0.013399845  0.020757771  0.021265433
Length of the computed step             ....  0.203860479
The final length of the internal step   ....  0.203860479
Converting the step to cartesian space:
 Initial RMS(Int)=    0.0222430019
Transforming coordinates:
 Iter   0:  RMS(Cart)=    0.0477442235 RMS(Int)=    1.1857349503
 Iter   1:  RMS(Cart)=    0.0012524222 RMS(Int)=    0.0008892037
 Iter   2:  RMS(Cart)=    0.0000456107 RMS(Int)=    0.0000331802
 Iter   3:  RMS(Cart)=    0.0000030657 RMS(Int)=    0.0000017352
 Iter   4:  RMS(Cart)=    0.0000001739 RMS(Int)=    0.0000001297
 Iter   5:  RMS(Cart)=    0.0000000065 RMS(Int)=    0.0000000042
done
Storing new coordinates                 .... done

                                .--------------------.
          ----------------------|Geometry convergence|-------------------------
          Item                value                   Tolerance       Converged
          ---------------------------------------------------------------------
          RMS gradient        0.0134517926            0.0001000000      NO
          MAX gradient        0.0507695733            0.0003000000      NO
          RMS step            0.0222430019            0.0020000000      NO
          MAX step            0.0748354555            0.0040000000      NO
          ........................................................
          Max(Bonds)      0.0396      Max(Angles)    3.69
          Max(Dihed)        1.37      Max(Improp)    0.00
          ---------------------------------------------------------------------

The optimization has not yet converged - more geometry cycles are needed


    ---------------------------------------------------------------------------
                         Redundant Internal Coordinates
                            (Angstroem and degrees)

        Definition                    Value    dE/dq     Step     New-Value
    ----------------------------------------------------------------------------
     1. B(C   1,C   0)                1.4944 -0.003435  0.0040    1.4984   
     2. B(C   2,C   1)                1.3897 -0.039728  0.0318    1.4214   
     3. B(C   3,C   2)                1.3826  0.003015 -0.0029    1.3797   
     4. B(C   4,C   3)                1.3907 -0.010400  0.0087    1.3994   
     5. B(C   5,C   4)                1.3726 -0.050770  0.0396    1.4122   
     6. B(C   6,C   5)                1.3625 -0.022189  0.0169    1.3794   
     7. B(C   6,C   1)                1.3999  0.000403 -0.0005    1.3994   
     8. B(H   7,C   6)                1.0780 -0.010425  0.0138    1.0918   
     9. B(S   8,C   5)                1.8785  0.014346 -0.0250    1.8535   
    10. B(O   9,S   8)                1.4382 -0.045295  0.0186    1.4568   
    11. B(O  10,S   8)                1.4380 -0.039397  0.0162    1.4542   
    12. B(O  11,S   8)                1.4374 -0.026266  0.0108    1.4482   
    13. B(F  12,C   4)                1.3256  0.024585 -0.0191    1.3066   
    14. B(H  13,C   3)                1.0792 -0.009518  0.0127    1.0919   
    15. B(H  14,C   2)                1.0800 -0.009637  0.0129    1.0929   
    16. B(H  15,C   0)                1.0865 -0.008487  0.0116    1.0981   
    17. B(H  16,C   0)                1.0866 -0.008068  0.0110    1.0977   
    18. B(H  17,C   0)                1.0897 -0.008652  0.0119    1.1016   
    19. A(C   1,C   0,H  17)          109.85 -0.000058   -0.03    109.81   
    20. A(H  15,C   0,H  17)          108.31  0.001613   -0.28    108.03   
    21. A(C   1,C   0,H  16)          110.83  0.000078   -0.00    110.83   
    22. A(C   1,C   0,H  15)          110.80 -0.003135    0.57    111.37   
    23. A(H  16,C   0,H  17)          107.86  0.000757   -0.24    107.61   
    24. A(H  15,C   0,H  16)          109.11  0.000893   -0.04    109.07   
    25. A(C   0,C   1,C   6)          119.71 -0.002460    0.40    120.11   
    26. A(C   0,C   1,C   2)          122.08  0.007052   -0.87    121.21   
    27. A(C   2,C   1,C   6)          118.20 -0.004590    0.46    118.66   
    28. A(C   1,C   2,H  14)          119.28  0.001028   -0.03    119.25   
    29. A(C   3,C   2,H  14)          118.91  0.002541   -0.26    118.65   
    30. A(C   1,C   2,C   3)          121.81 -0.003568    0.29    122.10   
    31. A(C   2,C   3,C   4)          119.57  0.006993   -0.97    118.60   
    32. A(C   4,C   3,H  13)          118.60 -0.005648    0.81    119.41   
    33. A(C   2,C   3,H  13)          121.83 -0.001345    0.16    121.99   
    34. A(C   5,C   4,F  12)          121.86  0.006072   -0.81    121.05   
    35. A(C   3,C   4,F  12)          120.31  0.008361   -1.11    119.20   
    36. A(C   3,C   4,C   5)          117.83 -0.014433    1.92    119.75   
    37. A(C   4,C   5,C   6)          123.76  0.020054   -2.34    121.41   
    38. A(C   6,C   5,S   8)          120.74 -0.001534    0.03    120.76   
    39. A(C   4,C   5,S   8)          115.51 -0.018520    2.31    117.82   
    40. A(C   5,C   6,H   7)          119.95  0.005533   -0.81    119.14   
    41. A(C   1,C   6,H   7)          121.22 -0.001078    0.17    121.39   
    42. A(C   1,C   6,C   5)          118.83 -0.004455    0.64    119.47   
    43. A(O   9,S   8,O  10)          118.57  0.024571   -3.13    115.45   
    44. A(C   5,S   8,O  10)           98.66 -0.032753    3.50    102.16   
    45. A(C   5,S   8,O   9)           98.53 -0.020812    2.04    100.57   
    46. A(O  10,S   8,O  11)          116.85  0.010874   -0.83    116.02   
    47. A(O   9,S   8,O  11)          116.84  0.010878   -1.05    115.79   
    48. A(C   5,S   8,O  11)          100.83 -0.031931    3.69    104.52   
    49. D(C   2,C   1,C   0,H  15)    -21.90 -0.000172   -0.12    -22.01   
    50. D(C   2,C   1,C   0,H  17)     97.73 -0.000185   -0.13     97.60   
    51. D(C   6,C   1,C   0,H  16)     37.86  0.000682   -0.28     37.58   
    52. D(C   2,C   1,C   0,H  16)   -143.18  0.000764   -0.45   -143.63   
    53. D(C   6,C   1,C   0,H  17)    -81.22 -0.000268    0.04    -81.19   
    54. D(C   6,C   1,C   0,H  15)    159.15 -0.000255    0.05    159.20   
    55. D(C   3,C   2,C   1,C   0)   -179.02 -0.000236    0.34   -178.68   
    56. D(C   3,C   2,C   1,C   6)     -0.04 -0.000136    0.17      0.13   
    57. D(H  14,C   2,C   1,C   0)      1.04 -0.000340    0.43      1.47   
    58. D(H  14,C   2,C   1,C   6)   -179.98 -0.000240    0.26   -179.72   
    59. D(H  13,C   3,C   2,C   1)   -179.88 -0.000189    0.19   -179.69   
    60. D(C   4,C   3,C   2,H  14)    179.94  0.000177   -0.18    179.76   
    61. D(H  13,C   3,C   2,H  14)      0.06 -0.000086    0.10      0.17   
    62. D(C   4,C   3,C   2,C   1)      0.00  0.000074   -0.09     -0.09   
    63. D(F  12,C   4,C   3,H  13)      0.01  0.000062   -0.07     -0.06   
    64. D(F  12,C   4,C   3,C   2)   -179.88 -0.000198    0.21   -179.67   
    65. D(C   5,C   4,C   3,H  13)    179.96 -0.000021    0.01    179.97   
    66. D(C   5,C   4,C   3,C   2)      0.08 -0.000280    0.29      0.37   
    67. D(S   8,C   5,C   4,F  12)     -0.01  0.000618   -0.66     -0.67   
    68. D(S   8,C   5,C   4,C   3)   -179.97  0.000701   -0.74   -180.70   
    69. D(C   6,C   5,C   4,F  12)    179.83  0.000488   -0.52    179.31   
    70. D(C   6,C   5,C   4,C   3)     -0.12  0.000571   -0.60     -0.72   
    71. D(H   7,C   6,C   5,S   8)     -0.15 -0.000314    0.32      0.17   
    72. D(H   7,C   6,C   5,C   4)   -179.99 -0.000154    0.17   -179.81   
    73. D(C   1,C   6,C   5,S   8)    179.92 -0.000789    0.83    180.75   
    74. D(C   1,C   6,C   5,C   4)      0.08 -0.000630    0.68      0.76   
    75. D(H   7,C   6,C   1,C   2)   -179.93 -0.000067    0.06   -179.86   
    76. D(H   7,C   6,C   1,C   0)     -0.93  0.000132   -0.11     -1.04   
    77. D(C   5,C   6,C   1,C   2)      0.01  0.000419   -0.45     -0.44   
    78. D(C   5,C   6,C   1,C   0)    179.01  0.000618   -0.63    178.38   
    79. D(O   9,S   8,C   5,C   4)     60.41  0.004920   -0.43     59.97   
    80. D(O  11,S   8,C   5,C   6)      0.13  0.001179   -0.01      0.12   
    81. D(O  11,S   8,C   5,C   4)    179.98  0.001090    0.12    180.10   
    82. D(O  10,S   8,C   5,C   6)    119.76 -0.006443    1.23    120.99   
    83. D(O  10,S   8,C   5,C   4)    -60.39 -0.006532    1.37    -59.03   
    84. D(O   9,S   8,C   5,C   6)   -119.44  0.005009   -0.56   -120.01   
    ----------------------------------------------------------------------------

         *************************************************************
         *                GEOMETRY OPTIMIZATION CYCLE   2            *
         *************************************************************
---------------------------------
CARTESIAN COORDINATES (ANGSTROEM)
---------------------------------
  C      3.505913    1.624966   -0.008278
  C      2.413095    0.600030    0.013797
  C      2.707110   -0.790567    0.004666
  C      1.715181   -1.749406   -0.002186
  C      0.379742   -1.331405    0.001856
  C      0.077160    0.048002    0.004777
  C      1.072818    1.002684    0.018529
  H      0.796413    2.058885    0.023378
  S     -1.709294    0.541670   -0.010141
  O     -2.167562   -0.084026    1.223088
  O     -2.185676   -0.078602   -1.236135
  O     -1.683168    1.989583   -0.005567
  F     -0.569242   -2.229470    0.002171
  H      1.942851   -2.817282   -0.004022
  H      3.750443   -1.115914    0.005558
  H      4.454462    1.206282    0.353452
  H      3.239097    2.493371    0.607784
  H      3.661857    1.982398   -1.038531

----------------------------
CARTESIAN COORDINATES (A.U.)
----------------------------
  NO LB      ZA    FRAG     MASS         X           Y           Z
   0 C     6.0000    0    12.011    6.625215    3.070741   -0.015642
   1 C     6.0000    0    12.011    4.560089    1.133893    0.026073
   2 C     6.0000    0    12.011    5.115696   -1.493955    0.008818
   3 C     6.0000    0    12.011    3.241222   -3.305899   -0.004130
   4 C     6.0000    0    12.011    0.717609   -2.515990    0.003508
   5 C     6.0000    0    12.011    0.145811    0.090710    0.009028
   6 C     6.0000    0    12.011    2.027333    1.894799    0.035014
   7 H     1.0000    0     1.008    1.505002    3.890729    0.044178
   8 S    16.0000    0    32.060   -3.230098    1.023608   -0.019163
   9 O     8.0000    0    15.999   -4.096099   -0.158787    2.311302
  10 O     8.0000    0    15.999   -4.130329   -0.148537   -2.335956
  11 O     8.0000    0    15.999   -3.180726    3.759767   -0.010520
  12 F     9.0000    0    18.998   -1.075711   -4.213087    0.004102
  13 H     1.0000    0     1.008    3.671457   -5.323891   -0.007600
  14 H     1.0000    0     1.008    7.087311   -2.108772    0.010503
  15 H     1.0000    0     1.008    8.417714    2.279543    0.667927
  16 H     1.0000    0     1.008    6.121006    4.711788    1.148546
  17 H     1.0000    0     1.008    6.919907    3.746189   -1.962539

--------------------------------
INTERNAL COORDINATES (ANGSTROEM)
--------------------------------
 C      0   0   0     0.000000000000     0.00000000     0.00000000
 C      1   0   0     1.498409587591     0.00000000     0.00000000
 C      2   1   0     1.421368558653   121.21499193     0.00000000
 C      3   2   1     1.379616925760   122.09095867   181.31523639
 C      4   3   2     1.399334892417   118.58981098   359.91242910
 C      5   4   3     1.412206311203   119.75296517     0.37239901
 C      6   5   4     1.379472233397   121.42370008   359.28016053
 H      7   6   5     1.091779842475   119.13210894   180.18312050
 S      6   5   4     1.853469214055   117.81774304   179.29315863
 O      9   6   5     1.456831978931   100.48533147    59.96529545
 O      9   6   5     1.454213979941   102.05916684   301.01631006
 O      9   6   5     1.448156252300   104.41177854   180.07195864
 F      5   4   3     1.306557082623   119.19852313   180.33760612
 H      4   3   2     1.091876565099   121.99306277   180.32019711
 H      3   2   1     1.092884587558   119.25649716     1.46991583
 H      1   2   3     1.098130307514   111.36623128   337.98737182
 H      1   2   3     1.097656685287   110.83056315   216.37134347
 H      1   2   3     1.101588965429   109.81382415    97.60518800

---------------------------
INTERNAL COORDINATES (A.U.)
---------------------------
 C      0   0   0     0.000000000000     0.00000000     0.00000000
 C      1   0   0     2.831583756988     0.00000000     0.00000000
 C      2   1   0     2.685997311221   121.21499193     0.00000000
 C      3   2   1     2.607098159410   122.09095867   181.31523639
 C      4   3   2     2.644359716308   118.58981098   359.91242910
 C      5   4   3     2.668683172768   119.75296517     0.37239901
 C      6   5   4     2.606824730469   121.42370008   359.28016053
 H      7   6   5     2.063164900813   119.13210894   180.18312050
 S      6   5   4     3.502549212218   117.81774304   179.29315863
 O      9   6   5     2.753013463318   100.48533147    59.96529545
 O      9   6   5     2.748066162208   102.05916684   301.01631006
 O      9   6   5     2.736618715974   104.41177854   180.07195864
 F      5   4   3     2.469035064493   119.19852313   180.33760612
 H      4   3   2     2.063347680084   121.99306277   180.32019711
 H      3   2   1     2.065252566468   119.25649716     1.46991583
 H      1   2   3     2.075165540559   111.36623128   337.98737182
 H      1   2   3     2.074270524260   110.83056315   216.37134347
 H      1   2   3     2.081701456810   109.81382415    97.60518800


Diagonalization of the overlap matrix:
Smallest eigenvalue                        ... 2.554e-04
Time for diagonalization                   ...    0.007 sec
Threshold for overlap eigenvalues          ... 1.000e-08
Number of eigenvalues below threshold      ... 0
Time for construction of square roots      ...    0.003 sec
Total time needed                          ...    0.010 sec

-------------------
DFT GRID GENERATION
-------------------

General Integration Accuracy     IntAcc      ...  4.340
Radial Grid Type                 RadialGrid  ... Gauss-Chebyshev
Angular Grid (max. acc.)         AngularGrid ... Lebedev-110
Angular grid pruning method      GridPruning ... 3 (G Style)
Weight generation scheme         WeightScheme... Becke
Basis function cutoff            BFCut       ...    1.0000e-11
Integration weight cutoff        WCut        ...    1.0000e-14
Grids for H and He will be reduced by one unit

# of grid points (after initial pruning)     ...  25050 (   0.0 sec)
# of grid points (after weights+screening)   ...  23194 (   0.1 sec)
nearest neighbour list constructed           ...    0.0 sec
Grid point re-assignment to atoms done       ...    0.0 sec
Grid point division into batches done        ...    0.0 sec
Reduced shell lists constructed in    0.2 sec

Total number of grid points                  ...    23194
Total number of batches                      ...      369
Average number of points per batch           ...       62
Average number of grid points per atom       ...     1289
Average number of shells per batch           ...    56.72 (61.65%)
Average number of basis functions per batch  ...   123.08 (60.93%)
Average number of large shells per batch     ...    42.07 (74.17%)
Average number of large basis fcns per batch ...    90.47 (73.51%)
Maximum spatial batch extension              ...  19.28, 23.02, 20.95 au
Average spatial batch extension              ...   3.55,  3.59,  3.85 au

Time for grid setup =    0.228 sec

--------------
SCF ITERATIONS
--------------
ITER       Energy         Delta-E        Max-DP      RMS-DP      [F,P]     Damp
               ***  Starting incremental Fock matrix formation  ***
  0   -993.1315670072   0.000000000000 0.00815292  0.00022544  0.0264814 0.7000
  1   -993.1336918751  -0.002124867905 0.00690621  0.00019189  0.0216568 0.7000
                               ***Turning on DIIS***
  2   -993.1354106062  -0.001718731052 0.01769247  0.00048783  0.0171685 0.0000
  3   -993.1402915681  -0.004880961944 0.00316123  0.00010139  0.0051096 0.0000
  4   -993.1406785893  -0.000387021222 0.00195537  0.00004810  0.0022183 0.0000
  5   -993.1408529141  -0.000174324714 0.00129000  0.00004084  0.0019299 0.0000
  6   -993.1409923231  -0.000139409046 0.00147908  0.00004366  0.0011744 0.0000
  7   -993.1411317073  -0.000139384224 0.00347595  0.00010211  0.0009413 0.0000
  8   -993.1414660257  -0.000334318347 0.00063014  0.00002166  0.0023010 0.0000
  9   -993.1413980339   0.000067991766 0.00011594  0.00000370  0.0029945 0.0000
 10   -993.1413926074   0.000005426478 0.00020391  0.00000578  0.0027812 0.0000
 11   -993.1413754115   0.000017195900 0.00021213  0.00000635  0.0026827 0.0000
 12   -993.1413935427  -0.000018131157 0.00237963  0.00008609  0.0023468 0.0000
 13   -993.1416134733  -0.000219930644 0.00241925  0.00006305  0.0009482 0.0000
 14   -993.1418082299  -0.000194756545 0.00116824  0.00004731  0.0026740 0.0000
 15   -993.1419482812  -0.000140051337 0.00158864  0.00005540  0.0013261 0.0000
 16   -993.1421107582  -0.000162477036 0.00314935  0.00008581  0.0009262 0.0000
 17   -993.1423884930  -0.000277734788 0.00150390  0.00005951  0.0024741 0.0000
 18   -993.1421904272   0.000198065813 0.00044829  0.00001420  0.0038169 0.0000
 19   -993.1422254220  -0.000034994751 0.00013335  0.00000381  0.0027947 0.0000
               *** Restarting incremental Fock matrix formation ***
                                   *** Resetting DIIS ***
 20   -993.1422171946   0.000008227349 0.00171914  0.00005654  0.0026684 0.0000
 21   -993.1423378993  -0.000120704653 0.00125457  0.00003049  0.0017029 0.0000
 22   -993.1424390575  -0.000101158240 0.00281573  0.00007526  0.0009621 0.0000
 23   -993.1426876425  -0.000248585007 0.00028895  0.00001102  0.0021588 0.0000
 24   -993.1426513452   0.000036297300 0.00014610  0.00000436  0.0024278 0.0000
 25   -993.1426375381   0.000013807110 0.00003888  0.00000179  0.0023822 0.0000
 26   -993.1426394464  -0.000001908247 0.00014729  0.00000343  0.0022746 0.0000
 27   -993.1426334490   0.000005997364 0.00163875  0.00007406  0.0021076 0.0000
 28   -993.1428236076  -0.000190158637 0.00112150  0.00002786  0.0011580 0.0000
 29   -993.1429223454  -0.000098737737 0.00132983  0.00003964  0.0010053 0.0000
 30   -993.1430560477  -0.000133702289 0.00120109  0.00003599  0.0010081 0.0000
 31   -993.1431794958  -0.000123448154 0.00062202  0.00001680  0.0010228 0.0000
 32   -993.1432380060  -0.000058510172 0.00056513  0.00002218  0.0014574 0.0000
 33   -993.1431801640   0.000057842021 0.00020535  0.00000816  0.0023666 0.0000
 34   -993.1431550492   0.000025114730 0.00092206  0.00003610  0.0024338 0.0000
 35   -993.1432711286  -0.000116079333 0.00095517  0.00003274  0.0016146 0.0000
 36   -993.1433788509  -0.000107722350 0.00193651  0.00006591  0.0013096 0.0000
 37   -993.1435866947  -0.000207843741 0.00164216  0.00004393  0.0010476 0.0000
 38   -993.1437420608  -0.000155366134 0.00169860  0.00004909  0.0010498 0.0000
 39   -993.1439126109  -0.000170550146 0.00178873  0.00004837  0.0010412 0.0000
               *** Restarting incremental Fock matrix formation ***
                                   *** Resetting DIIS ***
 40   -993.1440826128  -0.000170001911 0.00122258  0.00003494  0.0010607 0.0000
 41   -993.1442090293  -0.000126416450 0.00146016  0.00003679  0.0010696 0.0000
 42   -993.1443404735  -0.000131444216 0.00123819  0.00003190  0.0010886 0.0000
 43   -993.1444562292  -0.000115755686 0.00050202  0.00001664  0.0010759 0.0000
 44   -993.1444349206   0.000021308633 0.00098383  0.00002370  0.0015913 0.0000
 45   -993.1445159085  -0.000080987933 0.00016951  0.00000712  0.0015891 0.0000
 46   -993.1445137704   0.000002138149 0.00057593  0.00001657  0.0021308 0.0000
 47   -993.1445720455  -0.000058275190 0.00059889  0.00001545  0.0018925 0.0000
 48   -993.1446269758  -0.000054930274 0.00049653  0.00001543  0.0018726 0.0000
 49   -993.1446762005  -0.000049224691 0.00201907  0.00005439  0.0013162 0.0000
 50   -993.1448521554  -0.000175954916 0.00211793  0.00005009  0.0010796 0.0000
 51   -993.1450279370  -0.000175781594 0.00214006  0.00005126  0.0011063 0.0000
 52   -993.1452095977  -0.000181660644 0.00260902  0.00006276  0.0010687 0.0000
 53   -993.1454279213  -0.000218323607 0.00231746  0.00005378  0.0011080 0.0000
 54   -993.1456225192  -0.000194597946 0.00308296  0.00007426  0.0010694 0.0000
 55   -993.1458754831  -0.000252963856 0.00095420  0.00002132  0.0011222 0.0000
 56   -993.1459455897  -0.000070106674 0.00057985  0.00001715  0.0012851 0.0000
 57   -993.1459169722   0.000028617531 0.00064250  0.00001554  0.0021399 0.0000
 58   -993.1459718977  -0.000054925528 0.00057261  0.00001290  0.0019250 0.0000
 59   -993.1460176218  -0.000045724048 0.00087964  0.00002189  0.0019440 0.0000
               *** Restarting incremental Fock matrix formation ***
                                   *** Resetting DIIS ***
 60   -993.1460940811  -0.000076459282 0.00169856  0.00004615  0.0017077 0.0000
 61   -993.1462249311  -0.000130850070 0.00181829  0.00003250  0.0011673 0.0000
 62   -993.1463414242  -0.000116493107 0.00183160  0.00004100  0.0010680 0.0000
 63   -993.1464848775  -0.000143453250 0.00252715  0.00005625  0.0010634 0.0000
 64   -993.1466746942  -0.000189816725 0.00297833  0.00006667  0.0010490 0.0000
 65   -993.1468977120  -0.000223017763 0.00292668  0.00006047  0.0010405 0.0000
 66   -993.1471057634  -0.000208051424 0.00252029  0.00005420  0.0010256 0.0000
 67   -993.1472932310  -0.000187467578 0.00567989  0.00013017  0.0010161 0.0000
 68   -993.1476674608  -0.000374229790 0.00216840  0.00005778  0.0012750 0.0000
 69   -993.1476096388   0.000057821997 0.00259018  0.00006047  0.0020413 0.0000
 70   -993.1477940350  -0.000184396171 0.01278100  0.00026618  0.0009944 0.0000
 71   -993.1486233235  -0.000829288504 0.00086144  0.00001757  0.0018215 0.0000
 72   -993.1486708210  -0.000047497527 0.01865418  0.00042823  0.0009826 0.0000
 73   -993.1496500098  -0.000979188822 0.00254257  0.00006728  0.0024063 0.0000
 74   -993.1495891617   0.000060848066 0.00249421  0.00005570  0.0014220 0.0000
 75   -993.1496887175  -0.000099555806 0.00862277  0.00020293  0.0008005 0.0000
 76   -993.1500148612  -0.000326143677 0.00131027  0.00002904  0.0013375 0.0000
 77   -993.1500612898  -0.000046428614 0.00803859  0.00020193  0.0006197 0.0000
 78   -993.1502451071  -0.000183817312 0.00088543  0.00001771  0.0012492 0.0000
 79   -993.1502617193  -0.000016612169 0.00341722  0.00008775  0.0003897 0.0000
               *** Restarting incremental Fock matrix formation ***
                                   *** Resetting DIIS ***
 80   -993.1502941720  -0.000032452723 0.00062535  0.00001771  0.0009060 0.0000
 81   -993.1502992138  -0.000005041748 0.00031089  0.00000524  0.0010600 0.0000
 82   -993.1503020322  -0.000002818410 0.00025392  0.00000552  0.0001967 0.0000
 83   -993.1503042419  -0.000002209674 0.00033433  0.00000652  0.0001744 0.0000
 84   -993.1503064610  -0.000002219081 0.00046056  0.00000848  0.0001534 0.0000
 85   -993.1503086998  -0.000002238850 0.00050091  0.00000904  0.0001207 0.0000
 86   -993.1503103573  -0.000001657471 0.00039505  0.00000681  0.0000794 0.0000
 87   -993.1503112196  -0.000000862337 0.00019129  0.00000337  0.0000574 0.0000
 88   -993.1503115847  -0.000000365085 0.00020170  0.00000365  0.0000460 0.0000
 89   -993.1503119496  -0.000000364932 0.00019264  0.00000368  0.0000370 0.0000
 90   -993.1503122750  -0.000000325411 0.00030131  0.00000567  0.0000309 0.0000
 91   -993.1503126669  -0.000000391830 0.00032246  0.00000629  0.0000221 0.0000
 92   -993.1503129631  -0.000000296204 0.00014196  0.00000291  0.0000231 0.0000
 93   -993.1503130559  -0.000000092817 0.00021381  0.00000435  0.0000112 0.0000
 94   -993.1503131257  -0.000000069832 0.00003119  0.00000068  0.0000170 0.0000
 95   -993.1503131395  -0.000000013778 0.00006223  0.00000145  0.0000065 0.0000
 96   -993.1503131455  -0.000000005955 0.00003395  0.00000076  0.0000109 0.0000
 97   -993.1503131490  -0.000000003543 0.00001275  0.00000033  0.0000065 0.0000
 98   -993.1503131526  -0.000000003566 0.00001941  0.00000044  0.0000056 0.0000
 99   -993.1503131514   0.000000001148 0.00001952  0.00000035  0.0000042 0.0000
               *** Restarting incremental Fock matrix formation ***
                                   *** Resetting DIIS ***
                 **** Energy Check signals convergence ****

               *****************************************************
               *                     SUCCESS                       *
               *           SCF CONVERGED AFTER 100 CYCLES          *
               *****************************************************

Setting up the final grid:

General Integration Accuracy     IntAcc      ...  4.670
Radial Grid Type                 RadialGrid  ... Gauss-Chebyshev
Angular Grid (max. acc.)         AngularGrid ... Lebedev-302
Angular grid pruning method      GridPruning ... 3 (G Style)
Weight generation scheme         WeightScheme... Becke
Basis function cutoff            BFCut       ...    1.0000e-11
Integration weight cutoff        WCut        ...    1.0000e-14
Grids for H and He will be reduced by one unit

# of grid points (after initial pruning)     ...  95602 (   0.0 sec)
# of grid points (after weights+screening)   ...  87205 (   0.2 sec)
nearest neighbour list constructed           ...    0.0 sec
Grid point re-assignment to atoms done       ...    0.0 sec
Grid point division into batches done        ...    0.3 sec
Reduced shell lists constructed in    0.9 sec

Total number of grid points                  ...    87205
Total number of batches                      ...     1372
Average number of points per batch           ...       63
Average number of grid points per atom       ...     4845
Average number of shells per batch           ...    51.65 (56.15%)
Average number of basis functions per batch  ...   111.07 (54.99%)
Average number of large shells per batch     ...    37.72 (73.03%)
Average number of large basis fcns per batch ...    80.17 (72.18%)
Maximum spatial batch extension              ...  19.42, 18.95, 17.51 au
Average spatial batch extension              ...   2.43,  2.43,  2.50 au

Final grid set up in    1.1 sec
Final integration                            ... done (   1.9 sec)
Change in XC energy                          ...     0.001941504
Integrated number of electrons               ...    97.000121520
Previous integrated no of electrons          ...    96.996507199
Total Energy       :         -993.14837165 Eh          -27024.94111 eV
  Last Energy change         ...   -4.5475e-10  Tolerance :   1.0000e-08
  Last MAX-Density change    ...    6.0021e-06  Tolerance :   1.0000e-07
             **** THE GBW FILE WAS UPDATED (029939062.gbw) ****
             **** DENSITY FILE WAS UPDATED (029939062.scfp) ****
             **** ENERGY FILE WAS UPDATED (029939062.en.tmp) ****
----------------------
UHF SPIN CONTAMINATION
----------------------

Warning: in a DFT calculation there is little theoretical justification to 
         calculate <S**2> as in Hartree-Fock theory. We will do it anyways
         but you should keep in mind that the values have only limited relevance

Expectation value of <S**2>     :     0.765356
Ideal value S*(S+1) for S=0.5   :     0.750000
Deviation                       :     0.015356

             **** THE GBW FILE WAS UPDATED (029939062.gbw) ****
             **** DENSITY FILE WAS UPDATED (029939062.scfp) ****
Total SCF time: 0 days 0 hours 14 min 56 sec 


-------------------------------------------------------------------------------
                          DFT DISPERSION CORRECTION                            
                                                                               
                              DFTD3 V3.1  Rev 1                                
                              USING zero damping                               
-------------------------------------------------------------------------------
-------------------------   ----------------
Dispersion correction           -0.006461156
-------------------------   ----------------


-------------------------   --------------------
FINAL SINGLE POINT ENERGY      -993.154832804130
-------------------------   --------------------

------------------------------------------------------------------------------
                         ORCA SCF GRADIENT CALCULATION
------------------------------------------------------------------------------

Gradient of the Kohn-Sham DFT energy:
Kohn-Sham wavefunction type      ... UKS
Hartree-Fock exchange scaling    ...    0.196
Number of operators              ...    2
Number of atoms                  ...   18
Basis set dimensions             ...  202
Integral neglect threshold       ... 2.5e-11
Integral primitive cutoff        ... 2.5e-12

Nuclear repulsion gradient       ... done
One Electron Gradient            ... done
Pre-screening matrix             ... done
Starting the two electron gradient:
Two electron gradient done
Exchange-correlation gradient    ... done
Dispersion correction            ... done

------------------
CARTESIAN GRADIENT
------------------

   1   C   :   -0.001672065   -0.000260068    0.002244768
   2   C   :   -0.001613389    0.015136298   -0.001294123
   3   C   :   -0.004118649   -0.022956204   -0.000088729
   4   C   :    0.016832437   -0.000942962   -0.000592997
   5   C   :   -0.023567039   -0.023278506    0.000543018
   6   C   :    0.030332084    0.013214916    0.001948084
   7   C   :   -0.009197683    0.004381186    0.001156790
   8   H   :   -0.000493503   -0.000873316   -0.000125631
   9   S   :   -0.109294960    0.020888872   -0.000290736
  10   O   :    0.036532124    0.004658371   -0.016990251
  11   O   :    0.033477195    0.004865062    0.015136060
  12   O   :    0.020315888   -0.021073315   -0.000486902
  13   F   :    0.016438765    0.011037668    0.000229407
  14   H   :    0.000629912   -0.000095701    0.000025107
  15   H   :   -0.000815065   -0.001230229    0.000002587
  16   H   :   -0.000707517   -0.001254346   -0.000304998
  17   H   :   -0.001436813   -0.001149167   -0.000772601
  18   H   :   -0.001641723   -0.001068559   -0.000338851

Difference to translation invariance:
[...]
      px      :    -0.018499
      py      :    -0.046301
      dz2     :    -0.019077  d :    -0.032499
      dxz     :    -0.001525
      dyz     :    -0.005174
      dx2y2   :    -0.004649
      dxy     :    -0.002073
  9 O s       :     0.006130  s :     0.006130
      pz      :     0.320408  p :     0.520776
      px      :     0.056550
      py      :     0.143819
      dz2     :    -0.000212  d :    -0.000221
      dxz     :     0.000056
      dyz     :    -0.000009
      dx2y2   :    -0.000037
      dxy     :    -0.000019
 10 O s       :     0.006066  s :     0.006066
      pz      :     0.313573  p :     0.515726
      px      :     0.055461
      py      :     0.146692
      dz2     :    -0.000209  d :    -0.000224
      dxz     :     0.000056
      dyz     :    -0.000016
      dx2y2   :    -0.000036
      dxy     :    -0.000018
 11 O s       :     0.003580  s :     0.003580
      pz      :     0.077886  p :     0.074638
      px      :    -0.000087
      py      :    -0.003161
      dz2     :    -0.000016  d :    -0.000214
      dxz     :    -0.000001
      dyz     :    -0.000182
      dx2y2   :    -0.000005
      dxy     :    -0.000009
 12 F s       :    -0.000019  s :    -0.000019
      pz      :     0.000917  p :     0.000640
      px      :    -0.000112
      py      :    -0.000166
      dz2     :    -0.000000  d :    -0.000004
      dxz     :    -0.000002
      dyz     :     0.000000
      dx2y2   :    -0.000000
      dxy     :    -0.000002
 13 H s       :    -0.000030  s :    -0.000030
      pz      :    -0.000003  p :    -0.000002
      px      :     0.000001
      py      :    -0.000000
 14 H s       :    -0.000106  s :    -0.000106
      pz      :     0.000010  p :     0.000011
      px      :     0.000001
      py      :     0.000000
 15 H s       :    -0.000015  s :    -0.000015
      pz      :    -0.000000  p :    -0.000000
      px      :    -0.000000
      py      :    -0.000000
 16 H s       :     0.000009  s :     0.000009
      pz      :     0.000000  p :    -0.000000
      px      :    -0.000000
      py      :     0.000000
 17 H s       :     0.000008  s :     0.000008
      pz      :     0.000000  p :    -0.000000
      px      :    -0.000000
      py      :     0.000000


                     *******************************
                     * LOEWDIN POPULATION ANALYSIS *
                     *******************************

-------------------------------------------
LOEWDIN ATOMIC CHARGES AND SPIN POPULATIONS
-------------------------------------------
   0 C :   -0.050705   -0.000050
   1 C :   -0.038301   -0.000247
   2 C :    0.006360    0.001869
   3 C :   -0.050644   -0.000770
   4 C :    0.086940    0.001114
   5 C :   -0.235262   -0.003336
   6 C :   -0.002503   -0.000660
   7 H :    0.045686   -0.000188
   8 S :    1.149785   -0.082626
   9 O :   -0.323582    0.509035
  10 O :   -0.325100    0.503958
  11 O :   -0.441946    0.071441
  12 F :   -0.035799    0.000515
  13 H :    0.050734   -0.000037
  14 H :    0.040749   -0.000012
  15 H :    0.036673   -0.000012
  16 H :    0.041172    0.000003
  17 H :    0.045741    0.000004

----------------------------------------------------
LOEWDIN REDUCED ORBITAL CHARGES AND SPIN POPULATIONS
----------------------------------------------------
CHARGE
  0 C s       :     2.830808  s :     2.830808
      pz      :     1.076409  p :     3.149195
      px      :     1.032555
      py      :     1.040230
      dz2     :     0.014617  d :     0.070702
      dxz     :     0.009061
      dyz     :     0.014919
      dx2y2   :     0.012160
      dxy     :     0.019945
  1 C s       :     2.850389  s :     2.850389
      pz      :     0.960059  p :     3.081074
      px      :     1.057743
      py      :     1.063272
      dz2     :     0.007046  d :     0.106837
      dxz     :     0.011876
      dyz     :     0.011968
      dx2y2   :     0.039410
      dxy     :     0.036537
  2 C s       :     2.860269  s :     2.860269
      pz      :     0.935841  p :     3.042285
      px      :     1.047019
      py      :     1.059424
      dz2     :     0.006012  d :     0.091086
      dxz     :     0.005230
      dyz     :     0.014105
      dx2y2   :     0.033597
      dxy     :     0.032142
  3 C s       :     2.860092  s :     2.860092
      pz      :     1.000749  p :     3.103507
      px      :     1.050273
      py      :     1.052485
      dz2     :     0.006674  d :     0.087045
      dxz     :     0.012741
      dyz     :     0.004970
      dx2y2   :     0.035474
      dxy     :     0.027185
  4 C s       :     2.844673  s :     2.844673
      pz      :     0.956093  p :     2.867679
      px      :     0.955319
      py      :     0.956267
      dz2     :     0.013707  d :     0.200707
      dxz     :     0.025880
      dyz     :     0.025305
      dx2y2   :     0.067063
      dxy     :     0.068752
  5 C s       :     2.906284  s :     2.906284
      pz      :     1.112742  p :     3.231649
      px      :     1.029970
      py      :     1.088937
      dz2     :     0.008438  d :     0.097329
      dxz     :     0.005978
      dyz     :     0.014557
      dx2y2   :     0.039215
      dxy     :     0.029141
  6 C s       :     2.861249  s :     2.861249
      pz      :     0.936274  p :     3.049471
      px      :     1.059450
      py      :     1.053748
      dz2     :     0.006266  d :     0.091782
      dxz     :     0.015662
      dyz     :     0.005366
      dx2y2   :     0.030771
      dxy     :     0.033718
  7 H s       :     0.883064  s :     0.883064
      pz      :     0.012854  p :     0.071250
      px      :     0.014353
      py      :     0.044042
  8 S s       :     5.011969  s :     5.011969
      pz      :     2.892054  p :     8.757746
      px      :     2.957935
      py      :     2.907758
      dz2     :     0.211786  d :     1.080500
      dxz     :     0.168361
      dyz     :     0.257271
      dx2y2   :     0.242359
      dxy     :     0.200724
  9 O s       :     3.724139  s :     3.724139
      pz      :     1.345772  p :     4.574214
      px      :     1.652070
      py      :     1.576372
      dz2     :     0.005281  d :     0.025229
      dxz     :     0.007139
      dyz     :     0.007150
      dx2y2   :     0.002159
      dxy     :     0.003500
 10 O s       :     3.723336  s :     3.723336
      pz      :     1.348994  p :     4.576448
      px      :     1.651909
      py      :     1.575545
      dz2     :     0.005388  d :     0.025315
      dxz     :     0.007247
      dyz     :     0.007106
      dx2y2   :     0.002136
      dxy     :     0.003439
 11 O s       :     3.673762  s :     3.673762
      pz      :     1.612252  p :     4.738123
      px      :     1.705560
      py      :     1.420310
      dz2     :     0.004315  d :     0.030061
      dxz     :     0.000093
      dyz     :     0.006495
      dx2y2   :     0.013062
      dxy     :     0.006096
 12 F s       :     3.711317  s :     3.711317
      pz      :     1.880439  p :     5.310407
      px      :     1.705507
      py      :     1.724460
      dz2     :     0.002042  d :     0.014075
      dxz     :     0.001643
      dyz     :     0.001449
      dx2y2   :     0.002834
      dxy     :     0.006107
 13 H s       :     0.880152  s :     0.880152
      pz      :     0.014602  p :     0.069114
      px      :     0.011815
      py      :     0.042697
 14 H s       :     0.892478  s :     0.892478
      pz      :     0.012951  p :     0.066773
      px      :     0.040357
      py      :     0.013465
 15 H s       :     0.898235  s :     0.898235
      pz      :     0.016583  p :     0.065091
      px      :     0.033124
      py      :     0.015384
 16 H s       :     0.893540  s :     0.893540
      pz      :     0.021004  p :     0.065288
      px      :     0.013372
      py      :     0.030912
 17 H s       :     0.888663  s :     0.888663
      pz      :     0.037173  p :     0.065596
      px      :     0.013236
      py      :     0.015186

SPIN
  0 C s       :    -0.000010  s :    -0.000010
      pz      :    -0.000006  p :    -0.000039
      px      :    -0.000017
      py      :    -0.000016
      dz2     :     0.000000  d :    -0.000002
      dxz     :    -0.000002
      dyz     :     0.000003
      dx2y2   :    -0.000003
      dxy     :     0.000000
  1 C s       :    -0.000068  s :    -0.000068
      pz      :    -0.000040  p :    -0.000181
      px      :    -0.000099
      py      :    -0.000042
      dz2     :    -0.000002  d :     0.000002
      dxz     :    -0.000013
      dyz     :     0.000028
      dx2y2   :    -0.000000
      dxy     :    -0.000010
  2 C s       :     0.000049  s :     0.000049
      pz      :     0.001770  p :     0.001840
      px      :     0.000037
      py      :     0.000033
      dz2     :    -0.000006  d :    -0.000020
      dxz     :    -0.000006
      dyz     :    -0.000003
      dx2y2   :    -0.000001
      dxy     :    -0.000004
  3 C s       :    -0.000052  s :    -0.000052
      pz      :    -0.000649  p :    -0.000762
      px      :    -0.000084
      py      :    -0.000029
      dz2     :     0.000001  d :     0.000044
      dxz     :     0.000044
      dyz     :     0.000005
      dx2y2   :    -0.000001
      dxy     :    -0.000005
  4 C s       :    -0.000065  s :    -0.000065
      pz      :     0.001585  p :     0.001203
      px      :    -0.000229
      py      :    -0.000152
      dz2     :    -0.000007  d :    -0.000024
      dxz     :    -0.000008
      dyz     :     0.000073
      dx2y2   :    -0.000006
      dxy     :    -0.000076
  5 C s       :    -0.001197  s :    -0.001197
      pz      :     0.001590  p :    -0.001766
      px      :    -0.002860
      py      :    -0.000496
      dz2     :    -0.000057  d :    -0.000374
      dxz     :    -0.000165
      dyz     :     0.000004
      dx2y2   :     0.000002
      dxy     :    -0.000158
  6 C s       :    -0.000172  s :    -0.000172
      pz      :    -0.000000  p :    -0.000408
      px      :    -0.000279
      py      :    -0.000129
      dz2     :    -0.000004  d :    -0.000079
      dxz     :     0.000027
      dyz     :     0.000012
      dx2y2   :    -0.000114
      dxy     :    -0.000000
  7 H s       :    -0.000156  s :    -0.000156
      pz      :     0.000005  p :    -0.000032
      px      :    -0.000020
      py      :    -0.000017
  8 S s       :    -0.004801  s :    -0.004801
      pz      :    -0.013927  p :    -0.041393
      px      :    -0.009681
      py      :    -0.017785
      dz2     :    -0.023389  d :    -0.036433
      dxz     :    -0.001050
      dyz     :    -0.004986
      dx2y2   :    -0.006173
      dxy     :    -0.000835
  9 O s       :     0.004238  s :     0.004238
      pz      :     0.305048  p :     0.505404
      px      :     0.057270
      py      :     0.143087
      dz2     :    -0.000543  d :    -0.000608
      dxz     :     0.000026
      dyz     :     0.000047
      dx2y2   :    -0.000049
      dxy     :    -0.000088
 10 O s       :     0.004195  s :     0.004195
      pz      :     0.298284  p :     0.500374
      px      :     0.056205
      py      :     0.145885
      dz2     :    -0.000543  d :    -0.000611
      dxz     :     0.000024
      dyz     :     0.000043
      dx2y2   :    -0.000048
      dxy     :    -0.000087
 11 O s       :     0.000154  s :     0.000154
      pz      :     0.075089  p :     0.071591
      px      :    -0.000217
      py      :    -0.003281
      dz2     :     0.000009  d :    -0.000303
      dxz     :    -0.000002
      dyz     :    -0.000259
      dx2y2   :    -0.000033
      dxy     :    -0.000019
 12 F s       :    -0.000079  s :    -0.000079
      pz      :     0.000961  p :     0.000595
      px      :    -0.000167
      py      :    -0.000199
      dz2     :    -0.000000  d :    -0.000002
      dxz     :    -0.000001
      dyz     :     0.000003
      dx2y2   :     0.000000
      dxy     :    -0.000004
 13 H s       :    -0.000016  s :    -0.000016
      pz      :    -0.000015  p :    -0.000021
      px      :    -0.000004
      py      :    -0.000002
 14 H s       :    -0.000052  s :    -0.000052
      pz      :     0.000032  p :     0.000039
      px      :     0.000007
      py      :     0.000001
 15 H s       :    -0.000010  s :    -0.000010
      pz      :    -0.000001  p :    -0.000003
      px      :    -0.000001
      py      :    -0.000001
 16 H s       :     0.000004  s :     0.000004
      pz      :     0.000000  p :    -0.000001
      px      :    -0.000001
      py      :    -0.000000
 17 H s       :     0.000006  s :     0.000006
      pz      :    -0.000000  p :    -0.000002
      px      :    -0.000001
      py      :    -0.000001


                      *****************************
                      * MAYER POPULATION ANALYSIS *
                      *****************************

  NA   - Mulliken gross atomic population
  ZA   - Total nuclear charge
  QA   - Mulliken gross atomic charge
  VA   - Mayer's total valence
  BVA  - Mayer's bonded valence
  FA   - Mayer's free valence

  ATOM       NA         ZA         QA         VA         BVA        FA
  0 C      5.9678     6.0000     0.0322     3.9119     3.9119     0.0000
  1 C      6.1112     6.0000    -0.1112     3.9495     3.9495     0.0000
  2 C      5.9934     6.0000     0.0066     3.8537     3.8537     0.0000
  3 C      6.0893     6.0000    -0.0893     3.8606     3.8606     0.0000
  4 C      5.6974     6.0000     0.3026     4.0443     4.0443     0.0000
  5 C      6.2143     6.0000    -0.2143     3.7814     3.7814     0.0000
  6 C      5.9965     6.0000     0.0035     3.9656     3.9656     0.0000
  7 H      0.9546     1.0000     0.0454     1.0247     1.0247     0.0000
  8 S     15.0430    16.0000     0.9570     5.5968     5.5904     0.0064
  9 O      8.3080     8.0000    -0.3080     2.1109     1.8503     0.2606
 10 O      8.3092     8.0000    -0.3092     2.1110     1.8554     0.2556
 11 O      8.3949     8.0000    -0.3949     2.0670     2.0609     0.0062
 12 F      9.1619     9.0000    -0.1619     1.2169     1.2169     0.0000
 13 H      0.9533     1.0000     0.0467     0.9955     0.9955     0.0000
 14 H      0.9700     1.0000     0.0300     0.9938     0.9938     0.0000
 15 H      0.9570     1.0000     0.0430     0.9957     0.9957     0.0000
 16 H      0.9458     1.0000     0.0542     0.9937     0.9937     0.0000
 17 H      0.9326     1.0000     0.0674     0.9888     0.9888     0.0000

  Mayer bond orders larger than 0.100000
B(  0-C ,  1-C ) :   1.0356 B(  0-C , 15-H ) :   0.9672 B(  0-C , 16-H ) :   0.9669 
B(  0-C , 17-H ) :   0.9602 B(  1-C ,  2-C ) :   1.3981 B(  1-C ,  6-C ) :   1.3922 
B(  2-C ,  3-C ) :   1.3688 B(  2-C , 14-H ) :   0.9898 B(  3-C ,  4-C ) :   1.3991 
B(  3-C , 13-H ) :   0.9897 B(  4-C ,  5-C ) :   1.3371 B(  4-C , 12-F ) :   1.1533 
B(  5-C ,  6-C ) :   1.3968 B(  5-C ,  8-S ) :   0.8772 B(  6-C ,  7-H ) :   0.9876 
B(  8-S ,  9-O ) :   1.4176 B(  8-S , 10-O ) :   1.4228 B(  8-S , 11-O ) :   1.8093 
B(  9-O , 10-O ) :   0.3051 

-------
TIMINGS
-------

Total SCF time: 0 days 0 hours 1 min 18 sec 

Total time                  ....      78.631 sec
Sum of individual times     ....      78.398 sec  ( 99.7%)

Fock matrix formation       ....      76.922 sec  ( 97.8%)
  XC integration            ....       6.116 sec  (  8.0% of F)
    Basis function eval.    ....       1.406 sec  ( 23.0% of XC)
    Density eval.           ....       1.401 sec  ( 22.9% of XC)
    XC-Functional eval.     ....       1.324 sec  ( 21.6% of XC)
    XC-Potential eval.      ....       1.832 sec  ( 30.0% of XC)
Diagonalization             ....       0.104 sec  (  0.1%)
Density matrix formation    ....       0.015 sec  (  0.0%)
Population analysis         ....       0.011 sec  (  0.0%)
Initial guess               ....       0.009 sec  (  0.0%)
Orbital Transformation      ....       0.000 sec  (  0.0%)
Orbital Orthonormalization  ....       0.006 sec  (  0.0%)
DIIS solution               ....       0.033 sec  (  0.0%)
Grid generation             ....       1.305 sec  (  1.7%)


-------------------------------------------------------------------------------
                          DFT DISPERSION CORRECTION                            
                                                                               
                              DFTD3 V3.1  Rev 1                                
                              USING zero damping                               
-------------------------------------------------------------------------------
The omegaB97X-D3 functional is recognized. Fit by Chai et al.
Active option DFTDOPT                   ...         3   

molecular C6(AA) [au] = 4764.792733 


            DFT-D V3
 parameters
 s6 scaling factor         :     1.0000 
 rs6 scaling factor        :     1.2810 
 s8 scaling factor         :     1.0000 
 rs8 scaling factor        :     1.0940 
 Damping factor alpha6     :    14.0000 
 Damping factor alpha8     :    16.0000 
 ad hoc parameters k1-k3   :    16.0000     1.3333    -4.0000 

 Edisp/kcal,au: -4.013091489381  -0.006395267685 
 E6   /kcal   :  -1.645444257 
 E8   /kcal   :  -2.367647232 
 % E8         :  58.998087602 

-------------------------   ----------------
Dispersion correction           -0.006395268
-------------------------   ----------------


-------------------------   --------------------
FINAL SINGLE POINT ENERGY      -993.173777896302
-------------------------   --------------------

                                *** OPTIMIZATION RUN DONE ***

                            ***************************************
                            *     ORCA property calculations      *
                            ***************************************

                                    ---------------------
                                    Active property flags
                                    ---------------------
   (+) Dipole Moment


------------------------------------------------------------------------------
                       ORCA ELECTRIC PROPERTIES CALCULATION
------------------------------------------------------------------------------

Dipole Moment Calculation                       ... on
Quadrupole Moment Calculation                   ... off
Polarizability Calculation                      ... off
GBWName                                         ... 029939062.gbw
Electron density file                           ... 029939062.scfp
The origin for moment calculation is the CENTER OF MASS  = (-0.016021,  0.005233  0.000888)

-------------
DIPOLE MOMENT
-------------
                                X             Y             Z
Electronic contribution:    -15.04349      -5.79856       0.02031
Nuclear contribution   :     17.35503       5.69140      -0.03991
                        -----------------------------------------
Total Dipole Moment    :      2.31154      -0.10716      -0.01960
                        -----------------------------------------
Magnitude (a.u.)       :      2.31411
Magnitude (Debye)      :      5.88200



--------------------
Rotational spectrum 
--------------------
 
Rotational constants in cm-1:     0.048065     0.021918     0.016290 
Rotational constants in MHz :  1440.953553   657.099187   488.351832 

 Dipole components along the rotational axes: 
x,y,z [a.u.] :    -2.312076    -0.095553    -0.016481 
x,y,z [Debye]:    -5.876831    -0.242876    -0.041892 

 

Timings for individual modules:

Sum of individual times         ...     4423.294 sec (=  73.722 min)
GTO integral calculation        ...       10.574 sec (=   0.176 min)   0.2 %
SCF iterations                  ...     3738.046 sec (=  62.301 min)  84.5 %
SCF Gradient evaluation         ...      666.253 sec (=  11.104 min)  15.1 %
Geometry relaxation             ...        8.422 sec (=   0.140 min)   0.2 %
                             ****ORCA TERMINATED NORMALLY****
TOTAL RUN TIME: 0 days 1 hours 13 minutes 44 seconds 913 msec
