
                                 *****************
                                 * O   R   C   A *
                                 *****************

           --- An Ab Initio, DFT and Semiempirical electronic structure package ---

                  #######################################################
                  #                        -***-                        #
                  #          Department of theory and spectroscopy      #
                  #               Directorship: Frank Neese             #
                  #        Max Planck Institute fuer Kohlenforschung    #
                  #                Kaiser Wilhelm Platz 1               #
                  #                 D-45470 Muelheim/Ruhr               #
                  #                      Germany                        #
                  #                                                     #
                  #                  All rights reserved                #
                  #                        -***-                        #
                  #######################################################


                         Program Version 4.2.0 -  RELEASE  -


 With contributions from (in alphabetic order):
   Daniel Aravena         : Magnetic Suceptibility
   Michael Atanasov       : Ab Initio Ligand Field Theory (pilot matlab implementation)
   Alexander A. Auer      : GIAO ZORA, VPT2
   Ute Becker             : Parallelization
   Giovanni Bistoni       : ED, misc. LED, open-shell LED, HFLED
   Martin Brehm           : Molecular dynamics
   Dmytro Bykov           : SCF Hessian
   Vijay G. Chilkuri      : MRCI spin determinant printing, contributions to CSF-ICE
   Dipayan Datta          : RHF DLPNO-CCSD density
   Achintya Kumar Dutta   : EOM-CC, STEOM-CC
   Dmitry Ganyushin       : Spin-Orbit,Spin-Spin,Magnetic field MRCI
   Miquel Garcia          : C-PCM Hessian, Gaussian charge scheme
   Yang Guo               : DLPNO-NEVPT2, CIM, IAO-localization
   Andreas Hansen         : Spin unrestricted coupled pair/coupled cluster methods
   Benjamin Helmich-Paris : CASSCF linear response (MC-RPA)
   Lee Huntington         : MR-EOM, pCC
   Robert Izsak           : Overlap fitted RIJCOSX, COSX-SCS-MP3, EOM
   Christian Kollmar      : KDIIS, OOCD, Brueckner-CCSD(T), CCSD density
   Simone Kossmann        : Meta GGA functionals, TD-DFT gradient, OOMP2, MP2 Hessian
   Martin Krupicka        : AUTO-CI
   Lucas Lang             : DCDCAS
   Dagmar Lenk            : GEPOL surface, SMD
   Dimitrios Liakos       : Extrapolation schemes; Compound Job, initial MDCI parallelization
   Dimitrios Manganas     : Further ROCIS development; embedding schemes
   Dimitrios Pantazis     : SARC Basis sets
   Taras Petrenko         : DFT Hessian,TD-DFT gradient, ASA, ECA, R-Raman, ABS, FL, XAS/XES, NRVS
   Peter Pinski           : DLPNO-MP2, DLPNO-MP2 Gradient
   Christoph Reimann      : Effective Core Potentials
   Marius Retegan         : Local ZFS, SOC
   Christoph Riplinger    : Optimizer, TS searches, QM/MM, DLPNO-CCSD(T), (RO)-DLPNO pert. Triples
   Tobias Risthaus        : Range-separated hybrids, TD-DFT gradient, RPA, STAB
   Michael Roemelt        : Original ROCIS implementation
   Masaaki Saitow         : Open-shell DLPNO-CCSD energy and density
   Barbara Sandhoefer     : DKH picture change effects
   Avijit Sen             : IP-ROCIS
   Kantharuban Sivalingam : CASSCF convergence, NEVPT2, FIC-MRCI
   Bernardo de Souza      : ESD, SOC TD-DFT
   Georgi Stoychev        : AutoAux, RI-MP2 NMR
   Willem Van den Heuvel  : Paramagnetic NMR
   Boris Wezisla          : Elementary symmetry handling
   Frank Wennmohs         : Technical directorship


 We gratefully acknowledge several colleagues who have allowed us to
 interface, adapt or use parts of their codes:
   Stefan Grimme, W. Hujo, H. Kruse,             : VdW corrections, initial TS optimization,
                  C. Bannwarth                     DFT functionals, gCP, sTDA/sTD-DF
   Ed Valeev, F. Pavosevic, A. Kumar             : LibInt (2-el integral package), F12 methods
   Garnet Chan, S. Sharma, J. Yang, R. Olivares  : DMRG
   Ulf Ekstrom                                   : XCFun DFT Library
   Mihaly Kallay                                 : mrcc  (arbitrary order and MRCC methods)
   Andreas Klamt, Michael Diedenhofen            : otool_cosmo (COSMO solvation model)
   Jiri Pittner, Ondrej Demel                    : Mk-CCSD
   Frank Weinhold                                : gennbo (NPA and NBO analysis)
   Christopher J. Cramer and Donald G. Truhlar   : smd solvation model
   Lars Goerigk                                  : TD-DFT with DH, B97 family of functionals
   V. Asgeirsson, H. Jonsson                     : NEB implementation
   FAccTs GmbH                                   : IRC, NEB, NEB-TS, Multilevel, MM, QM/MM, CI optimization
   S Lehtola, MJT Oliveira, MAL Marques          : LibXC Library


 Your calculation uses the libint2 library for the computation of 2-el integrals
 For citations please refer to: http://libint.valeyev.net

 Your ORCA version has been built with support for libXC version: 4.2.3
 For citations please refer to: https://tddft.org/programs/libxc/

 This ORCA versions uses:
   CBLAS   interface :  Fast vector & matrix operations
   LAPACKE interface :  Fast linear algebra routines
   SCALAPACK package :  Parallel linear algebra routines


Your calculation utilizes the atom-pairwise dispersion correction
with the zero-damping scheme (D30)
Cite in your paper:
S.Grimme, J.Antony, S.Ehrlich and H.Krieg, J.Chem.Phys., 132, (2010), 154104 
   

XCFun DFT library Copyright 2009-2010 Ulf Ekstrom and contributors.
See http://admol.org/xcfun for more information. This is free soft-
ware; see the source code for copying conditions. There is ABSOLUTELY
NO WARRANTY; not even for MERCHANTABILITY or FITNESS FOR A PARTICULAR
PURPOSE. For details see the documentation. Scientific users of this 
library should cite U. Ekstrom, L. Visscher, R. Bast, A. J. Thorvald-
sen and K. Ruud; J.Chem.Theor.Comp. 2010, DOI: 10.1021/ct100117s
XCFun Version 0.99 
----- Orbital basis set information -----
Your calculation utilizes the basis: def2-SVP
   F. Weigend and R. Ahlrichs, Phys. Chem. Chem. Phys. 7, 3297 (2005).

================================================================================
                                        WARNINGS
                       Please study these warnings very carefully!
================================================================================


WARNING: your system is open-shell and RHF/RKS was chosen
  ===> : WILL SWITCH to UHF/UKS


WARNING: Geometry Optimization
  ===> : Switching off AutoStart
         For restart on a previous wavefunction, please use MOREAD

INFO   : the flag for use of LIBINT has been found!

================================================================================
                                       INPUT FILE
================================================================================
NAME = 051538824.inp
|  1> # ORCA input file
|  2> # -34.47012878
|  3> ! wB97X-D3 def2-SVP Opt
|  4> * xyz 0 2
|  5>    C       -2.64460        -0.85090        -0.00090
|  6>    C       -1.65890        -1.81380         0.00120
|  7>    N       -0.38190        -1.45580         0.00550
|  8>    C       -0.06310        -0.21630         0.00940
|  9>    C       -0.91930         0.84560         0.00680
| 10>    C       -2.29240         0.51310         0.00190
| 11>    N       -3.22560         1.48480         0.00110
| 12>    H       -4.20360         1.25950        -0.00780
| 13>    H       -2.94730         2.44940        -0.00110
| 14>    H       -0.55630         1.85830         0.01030
| 15>    S        1.79200         0.17270        -0.00140
| 16>    O        2.12740        -0.42190        -1.26880
| 17>    O        1.78060         1.61140         0.05350
| 18>    O        2.18420        -0.51620         1.19880
| 19>    H       -1.87460        -2.87110        -0.00130
| 20>    H       -3.68390        -1.13960        -0.00540
| 21> *
| 22> 
| 23>                          ****END OF INPUT****
================================================================================

                       *****************************
                       * Geometry Optimization Run *
                       *****************************

Geometry optimization settings:
Update method            Update   .... BFGS
Choice of coordinates    CoordSys .... Z-matrix Internals
Initial Hessian          InHess   .... Almoef's Model

Convergence Tolerances:
Energy Change            TolE     ....  5.0000e-06 Eh
Max. Gradient            TolMAXG  ....  3.0000e-04 Eh/bohr
RMS Gradient             TolRMSG  ....  1.0000e-04 Eh/bohr
Max. Displacement        TolMAXD  ....  4.0000e-03 bohr
RMS Displacement         TolRMSD  ....  2.0000e-03 bohr
Strict Convergence                ....  False
------------------------------------------------------------------------------
                        ORCA OPTIMIZATION COORDINATE SETUP
------------------------------------------------------------------------------

The optimization will be done in new redundant internal coordinates
Making redundant internal coordinates   ...  (new redundants) done
Evaluating the initial hessian          ...  (Almloef) done
Evaluating the coordinates              ...  done
Calculating the B-matrix                .... done
Calculating the G-matrix                .... done
Diagonalizing the G-matrix              .... done
The first mode is                       ....   29
The number of degrees of freedom        ....   42

    -----------------------------------------------------------------
                    Redundant Internal Coordinates


    -----------------------------------------------------------------
         Definition                    Initial Value    Approx d2E/dq
    -----------------------------------------------------------------
      1. B(C   1,C   0)                  1.3780         0.653042   
      2. B(N   2,C   1)                  1.3262         0.707296   
      3. B(C   3,N   2)                  1.2798         0.838720   
      4. B(C   4,C   3)                  1.3641         0.687212   
      5. B(C   5,C   4)                  1.4128         0.574611   
      6. B(C   5,C   0)                  1.4087         0.583230   
      7. B(N   6,C   5)                  1.3472         0.654774   
      8. B(H   7,N   6)                  1.0037         0.442913   
      9. B(H   8,N   6)                  1.0039         0.442438   
     10. B(H   9,C   4)                  1.0758         0.379385   
     11. B(S  10,C   3)                  1.8955         0.263057   
     12. B(O  11,S  10)                  1.4396         1.257670   
     13. B(O  12,S  10)                  1.4398         1.256617   
     14. B(O  13,S  10)                  1.4384         1.263239   
     15. B(H  14,C   1)                  1.0791         0.374838   
     16. B(H  15,C   0)                  1.0787         0.375415   
     17. A(C   1,C   0,C   5)          119.8512         0.433347   
     18. A(C   1,C   0,H  15)          120.1461         0.358558   
     19. A(C   5,C   0,H  15)          120.0028         0.351747   
     20. A(C   0,C   1,N   2)          120.0099         0.445752   
     21. A(N   2,C   1,H  14)          117.1915         0.361118   
     22. A(C   0,C   1,H  14)          122.7986         0.358464   
     23. A(C   1,N   2,C   3)          120.0847         0.463434   
     24. A(N   2,C   3,S  10)          116.2651         0.412003   
     25. A(C   4,C   3,S  10)          117.0348         0.400323   
     26. A(N   2,C   3,C   4)          126.6965         0.464087   
     27. A(C   5,C   4,H   9)          123.3328         0.351488   
     28. A(C   3,C   4,H   9)          121.4003         0.362338   
     29. A(C   3,C   4,C   5)          115.2668         0.436173   
     30. A(C   0,C   5,N   6)          121.6795         0.430718   
     31. A(C   0,C   5,C   4)          118.0907         0.423518   
     32. A(C   4,C   5,N   6)          120.2298         0.429569   
     33. A(H   7,N   6,H   8)          119.0637         0.305477   
     34. A(C   5,N   6,H   8)          120.0643         0.363398   
     35. A(C   5,N   6,H   7)          120.8684         0.363464   
     36. A(O  12,S  10,O  13)          116.6748         0.626205   
     37. A(O  11,S  10,O  13)          118.2471         0.626307   
     38. A(C   3,S  10,O  13)           99.4285         0.468726   
     39. A(O  11,S  10,O  12)          116.6246         0.625668   
     40. A(C   3,S  10,O  12)          101.3676         0.468275   
     41. A(C   3,S  10,O  11)           98.5269         0.468347   
     42. D(H  14,C   1,C   0,C   5)   -179.9672         0.029713   
     43. D(H  14,C   1,C   0,H  15)     -0.0115         0.029713   
     44. D(N   2,C   1,C   0,C   5)     -0.0173         0.029713   
     45. D(N   2,C   1,C   0,H  15)    179.9384         0.029713   
     46. D(C   3,N   2,C   1,C   0)      0.0877         0.037539   
     47. D(C   3,N   2,C   1,H  14)   -179.9596         0.037539   
     48. D(C   4,C   3,N   2,C   1)     -0.1528         0.054850   
     49. D(S  10,C   3,N   2,C   1)   -179.4362         0.054850   
     50. D(H   9,C   4,C   3,S  10)     -0.7073         0.033160   
     51. D(H   9,C   4,C   3,N   2)   -179.9859         0.033160   
     52. D(C   5,C   4,C   3,S  10)    179.4096         0.033160   
     53. D(C   5,C   4,C   3,N   2)      0.1309         0.033160   
     54. D(C   4,C   5,C   0,H  15)   -179.9542         0.023382   
     55. D(C   4,C   5,C   0,C   1)      0.0016         0.023382   
     56. D(N   6,C   5,C   0,C   1)   -179.9442         0.023382   
     57. D(N   6,C   5,C   4,H   9)      0.0160         0.022665   
     58. D(N   6,C   5,C   4,C   3)    179.8966         0.022665   
     59. D(C   0,C   5,C   4,H   9)   -179.9306         0.022665   
     60. D(C   0,C   5,C   4,C   3)     -0.0500         0.022665   
     61. D(N   6,C   5,C   0,H  15)      0.1000         0.023382   
     62. D(H   8,N   6,C   5,C   4)      0.3355         0.035033   
     63. D(H   8,N   6,C   5,C   0)   -179.7198         0.035033   
     64. D(H   7,N   6,C   5,C   4)    179.6386         0.035033   
     65. D(H   7,N   6,C   5,C   0)     -0.4168         0.035033   
     66. D(O  13,S  10,C   3,C   4)    122.4230         0.002689   
     67. D(O  13,S  10,C   3,N   2)    -58.2220         0.002689   
     68. D(O  12,S  10,C   3,C   4)      2.5839         0.002689   
     69. D(O  12,S  10,C   3,N   2)   -178.0611         0.002689   
     70. D(O  11,S  10,C   3,C   4)   -116.9121         0.002689   
     71. D(O  11,S  10,C   3,N   2)     62.4429         0.002689   
    -----------------------------------------------------------------

Number of atoms                         .... 16
Number of degrees of freedom            .... 71

         *************************************************************
         *                GEOMETRY OPTIMIZATION CYCLE   1            *
         *************************************************************
---------------------------------
CARTESIAN COORDINATES (ANGSTROEM)
---------------------------------
  C     -2.644600   -0.850900   -0.000900
  C     -1.658900   -1.813800    0.001200
  N     -0.381900   -1.455800    0.005500
  C     -0.063100   -0.216300    0.009400
  C     -0.919300    0.845600    0.006800
  C     -2.292400    0.513100    0.001900
  N     -3.225600    1.484800    0.001100
  H     -4.203600    1.259500   -0.007800
  H     -2.947300    2.449400   -0.001100
  H     -0.556300    1.858300    0.010300
  S      1.792000    0.172700   -0.001400
  O      2.127400   -0.421900   -1.268800
  O      1.780600    1.611400    0.053500
  O      2.184200   -0.516200    1.198800
  H     -1.874600   -2.871100   -0.001300
  H     -3.683900   -1.139600   -0.005400

----------------------------
CARTESIAN COORDINATES (A.U.)
----------------------------
  NO LB      ZA    FRAG     MASS         X           Y           Z
   0 C     6.0000    0    12.011   -4.997570   -1.607968   -0.001701
   1 C     6.0000    0    12.011   -3.134867   -3.427585    0.002268
   2 N     7.0000    0    14.007   -0.721686   -2.751063    0.010393
   3 C     6.0000    0    12.011   -0.119242   -0.408748    0.017763
   4 C     6.0000    0    12.011   -1.737225    1.597952    0.012850
   5 C     6.0000    0    12.011   -4.332008    0.969618    0.003590
   6 N     7.0000    0    14.007   -6.095501    2.805865    0.002079
   7 H     1.0000    0     1.008   -7.943653    2.380110   -0.014740
   8 H     1.0000    0     1.008   -5.569590    4.628695   -0.002079
   9 H     1.0000    0     1.008   -1.051255    3.511678    0.019464
  10 S    16.0000    0    32.060    3.386389    0.326356   -0.002646
  11 O     8.0000    0    15.999    4.020203   -0.797275   -2.397685
  12 O     8.0000    0    15.999    3.364846    3.045105    0.101100
  13 O     8.0000    0    15.999    4.127540   -0.975477    2.265404
  14 H     1.0000    0     1.008   -3.542481   -5.425593   -0.002457
  15 H     1.0000    0     1.008   -6.961562   -2.153532   -0.010205

--------------------------------
INTERNAL COORDINATES (ANGSTROEM)
--------------------------------
 C      0   0   0     0.000000000000     0.00000000     0.00000000
 C      1   0   0     1.377964190391     0.00000000     0.00000000
 N      2   1   0     1.326239605049   120.00993389     0.00000000
 C      3   2   1     1.279847217444   120.08474701     0.08769787
 C      4   3   2     1.364080939681   126.69653256   359.84721720
 C      1   2   3     1.408740103781   119.85115575     0.00000000
 N      6   1   2     1.347243025590   121.67952341   180.05577352
 H      7   6   1     1.003654970595   120.86835576   359.58322092
 H      7   6   1     1.003946656949   120.06429193   180.28019509
 H      5   4   3     1.075798559211   121.40032652   180.01408910
 S      4   3   2     1.895477156285   116.26505779   180.56375072
 O     11   4   3     1.439564197943    98.52690646    62.44289506
 O     11   4   3     1.439792228066   101.36761769   181.93891570
 O     11   4   3     1.438361599182    99.42848256   301.77800664
 H      2   1   3     1.079081104459   122.79855450   180.05009332
 H      1   2   3     1.078662333634   120.14606833   179.93838957

---------------------------
INTERNAL COORDINATES (A.U.)
---------------------------
 C      0   0   0     0.000000000000     0.00000000     0.00000000
 C      1   0   0     2.603974942190     0.00000000     0.00000000
 N      2   1   0     2.506229641502   120.00993389     0.00000000
 C      3   2   1     2.418560734231   120.08474701     0.08769787
 C      4   3   2     2.577739400498   126.69653256   359.84721720
 C      1   2   3     2.662132990017   119.85115575     0.00000000
 N      6   1   2     2.545920354200   121.67952341   180.05577352
 H      7   6   1     1.896633027373   120.86835576   359.58322092
 H      7   6   1     1.897184234700   120.06429193   180.28019509
 H      5   4   3     2.032964652175   121.40032652   180.01408910
 S      4   3   2     3.581932718483   116.26505779   180.56375072
 O     11   4   3     2.720382086311    98.52690646    62.44289506
 O     11   4   3     2.720813000794   101.36761769   181.93891570
 O     11   4   3     2.718109504002    99.42848256   301.77800664
 H      2   1   3     2.039167763716   122.79855450   180.05009332
 H      1   2   3     2.038376401544   120.14606833   179.93838957

---------------------
BASIS SET INFORMATION
---------------------
There are 5 groups of distinct atoms

 Group   1 Type C   : 7s4p1d contracted to 3s2p1d pattern {511/31/1}
 Group   2 Type N   : 7s4p1d contracted to 3s2p1d pattern {511/31/1}
 Group   3 Type H   : 4s1p contracted to 2s1p pattern {31/1}
 Group   4 Type S   : 10s7p1d contracted to 4s3p1d pattern {5311/511/1}
 Group   5 Type O   : 7s4p1d contracted to 3s2p1d pattern {511/31/1}

Atom   0C    basis set group =>   1
Atom   1C    basis set group =>   1
Atom   2N    basis set group =>   2
Atom   3C    basis set group =>   1
Atom   4C    basis set group =>   1
Atom   5C    basis set group =>   1
Atom   6N    basis set group =>   2
Atom   7H    basis set group =>   3
Atom   8H    basis set group =>   3
Atom   9H    basis set group =>   3
Atom  10S    basis set group =>   4
Atom  11O    basis set group =>   5
Atom  12O    basis set group =>   5
Atom  13O    basis set group =>   5
Atom  14H    basis set group =>   3
Atom  15H    basis set group =>   3
------------------------------------------------------------------------------
                           ORCA GTO INTEGRAL CALCULATION
------------------------------------------------------------------------------

                         BASIS SET STATISTICS AND STARTUP INFO

 # of primitive gaussian shells          ...  163
 # of primitive gaussian functions       ...  311
 # of contracted shells                  ...   83
 # of contracted basis functions         ...  183
 Highest angular momentum                ...    2
 Maximum contraction depth               ...    5
 Integral package used                   ... LIBINT
 Integral threshhold            Thresh   ...  2.500e-11
 Primitive cut-off              TCut     ...  2.500e-12


------------------------------ INTEGRAL EVALUATION ----------------------------


 * One electron integrals 
 Pre-screening matrix                    ... done
 Shell pair data                         ... done (   0.001 sec)

-------------------------------------------------------------------------------
                                 ORCA SCF
-------------------------------------------------------------------------------

------------
SCF SETTINGS
------------
Hamiltonian:
 Density Functional     Method          .... DFT(GTOs)
 Exchange Functional    Exchange        .... WB97X-D3
 Correlation Functional Correlation     .... WB97X-D3
 Gradients option       PostSCFGGA      .... off
 Hybrid DFT is turned on
   Fraction HF Exchange ScalHFX         ....  0.195728
   Scaling of DF-GGA-X  ScalDFX         ....  0.000000
   Scaling of DF-GGA-C  ScalDFC         ....  1.000000
   Scaling of DF-LDA-C  ScalLDAC        ....  1.000000
   Perturbative correction              ....  0.000000
   Density functional embedding theory  .... OFF
 Long-range corrected/Screened/Range-Separated Hybrid DFT is turned on
   Amount of maximum screened exact exchange              ....  0.804272
   Range separation parameter mu (erf(mu*r12)/r12)        ....  0.250000


General Settings:
 Integral files         IntName         .... 051538824
 Hartree-Fock type      HFTyp           .... UHF
 Total Charge           Charge          ....    0
 Multiplicity           Mult            ....    2
 Number of Electrons    NEL             ....   89
 Basis Dimension        Dim             ....  183
 Nuclear Repulsion      ENuc            ....    732.3570805166 Eh

Convergence Acceleration:
 DIIS                   CNVDIIS         .... on
   Start iteration      DIISMaxIt       ....    12
   Startup error        DIISStart       ....  0.200000
   # of expansion vecs  DIISMaxEq       ....     5
   Bias factor          DIISBfac        ....   1.050
   Max. coefficient     DIISMaxC        ....  10.000
 Newton-Raphson         CNVNR           .... off
 SOSCF                  CNVSOSCF        .... off
 Level Shifting         CNVShift        .... on
   Level shift para.    LevelShift      ....    0.2500
   Turn off err/grad.   ShiftErr        ....    0.0010
 Zerner damping         CNVZerner       .... off
 Static damping         CNVDamp         .... on
   Fraction old density DampFac         ....    0.7000
   Max. Damping (<1)    DampMax         ....    0.9800
   Min. Damping (>=0)   DampMin         ....    0.0000
   Turn off err/grad.   DampErr         ....    0.1000
 Fernandez-Rico         CNVRico         .... off

SCF Procedure:
 Maximum # iterations   MaxIter         ....   125
 SCF integral mode      SCFMode         .... Direct
   Integral package                     .... LIBINT
 Reset frequency        DirectResetFreq ....    20
 Integral Threshold     Thresh          ....  2.500e-11 Eh
 Primitive CutOff       TCut            ....  2.500e-12 Eh

Convergence Tolerance:
 Convergence Check Mode ConvCheckMode   .... Total+1el-Energy
 Convergence forced     ConvForced      .... 0
 Energy Change          TolE            ....  1.000e-08 Eh
 1-El. energy change                    ....  1.000e-05 Eh
 DIIS Error             TolErr          ....  5.000e-07


Diagonalization of the overlap matrix:
Smallest eigenvalue                        ... 6.151e-04
Time for diagonalization                   ...    0.108 sec
Threshold for overlap eigenvalues          ... 1.000e-08
Number of eigenvalues below threshold      ... 0
Time for construction of square roots      ...    0.002 sec
Total time needed                          ...    0.110 sec

-------------------
DFT GRID GENERATION
-------------------

General Integration Accuracy     IntAcc      ...  4.340
Radial Grid Type                 RadialGrid  ... Gauss-Chebyshev
Angular Grid (max. acc.)         AngularGrid ... Lebedev-110
Angular grid pruning method      GridPruning ... 3 (G Style)
Weight generation scheme         WeightScheme... Becke
Basis function cutoff            BFCut       ...    1.0000e-11
Integration weight cutoff        WCut        ...    1.0000e-14
Grids for H and He will be reduced by one unit

# of grid points (after initial pruning)     ...  22608 (   0.0 sec)
# of grid points (after weights+screening)   ...  21077 (   0.0 sec)
nearest neighbour list constructed           ...    0.0 sec
Grid point re-assignment to atoms done       ...    0.0 sec
Grid point division into batches done        ...    0.0 sec
Reduced shell lists constructed in    0.1 sec

Total number of grid points                  ...    21077
Total number of batches                      ...      337
Average number of points per batch           ...       62
Average number of grid points per atom       ...     1317
Average number of shells per batch           ...    52.93 (63.77%)
Average number of basis functions per batch  ...   116.00 (63.39%)
Average number of large shells per batch     ...    40.21 (75.97%)
Average number of large basis fcns per batch ...    87.30 (75.26%)
Maximum spatial batch extension              ...  18.46, 18.47, 25.61 au
Average spatial batch extension              ...   3.55,  3.60,  4.01 au

Time for grid setup =    0.183 sec

------------------------------
INITIAL GUESS: MODEL POTENTIAL
------------------------------
Loading Hartree-Fock densities                     ... done
Calculating cut-offs                               ... done
Setting up the integral package                    ... done
Initializing the effective Hamiltonian             ... done
Starting the Coulomb interaction                   ... done (   0.1 sec)
Reading the grid                                   ... done
Mapping shells                                     ... done
Starting the XC term evaluation                    ... done (   0.2 sec)
  promolecular density results
     # of electrons  =     89.006245536
     EX              =    -89.647281444
     EC              =     -3.120729849
     EX+EC           =    -92.768011293
Transforming the Hamiltonian                       ... done (   0.0 sec)
Diagonalizing the Hamiltonian                      ... done (   0.0 sec)
Back transforming the eigenvectors                 ... done (   0.0 sec)
Now organizing SCF variables                       ... done
                      ------------------
                      INITIAL GUESS DONE (   0.6 sec)
                      ------------------
--------------
SCF ITERATIONS
--------------
ITER       Energy         Delta-E        Max-DP      RMS-DP      [F,P]     Damp
               ***  Starting incremental Fock matrix formation  ***
  0   -925.6278703102   0.000000000000 0.06895640  0.00141271  0.2755763 0.7000
  1   -925.7986661478  -0.170795837569 0.03762336  0.00099882  0.1390439 0.7000
                               ***Turning on DIIS***
  2   -925.8745819751  -0.075915827331 0.04349849  0.00186046  0.0558865 0.0000
  3   -926.0035969912  -0.129015016027 0.03484329  0.00065302  0.0684449 0.0000
  4   -926.0245604272  -0.020963436052 0.00641371  0.00019644  0.0081108 0.0000
  5   -926.0255552889  -0.000994861650 0.00384271  0.00009396  0.0028051 0.0000
  6   -926.0259528558  -0.000397566958 0.00302058  0.00006748  0.0015916 0.0000
  7   -926.0261981302  -0.000245274377 0.00269889  0.00004926  0.0014497 0.0000
  8   -926.0263539470  -0.000155816769 0.00206266  0.00003967  0.0012031 0.0000
  9   -926.0264537703  -0.000099823331 0.00269488  0.00006198  0.0009899 0.0000
 10   -926.0265653232  -0.000111552863 0.00139702  0.00004064  0.0005547 0.0000
 11   -926.0266159149  -0.000050591755 0.00105555  0.00003314  0.0003471 0.0000
 12   -926.0266544315  -0.000038516637 0.00010324  0.00000349  0.0003057 0.0000
 13   -926.0266582761  -0.000003844588 0.00009598  0.00000245  0.0003117 0.0000
 14   -926.0266557920   0.000002484186 0.00016626  0.00000317  0.0003092 0.0000
 15   -926.0266538074   0.000001984550 0.00033718  0.00001109  0.0003083 0.0000
 16   -926.0266673984  -0.000013590998 0.00045477  0.00001436  0.0003260 0.0000
 17   -926.0266854254  -0.000018027039 0.00039366  0.00001330  0.0003493 0.0000
 18   -926.0267026175  -0.000017192053 0.00088034  0.00003045  0.0003722 0.0000
 19   -926.0266640135   0.000038603994 0.00106153  0.00003607  0.0003181 0.0000
               *** Restarting incremental Fock matrix formation ***
                                   *** Resetting DIIS ***
 20   -926.0266246552   0.000039358292 0.00102907  0.00003070  0.0002527 0.0000
 21   -926.0266585111  -0.000033855891 0.00000307  0.00000010  0.0003019 0.0000
 22   -926.0266586219  -0.000000110777 0.00000464  0.00000014  0.0003021 0.0000
 23   -926.0266584546   0.000000167261 0.00000005  0.00000000  0.0003018 0.0000
                 **** Energy Check signals convergence ****

               *****************************************************
               *                     SUCCESS                       *
               *           SCF CONVERGED AFTER  24 CYCLES          *
               *****************************************************

Setting up the final grid:

General Integration Accuracy     IntAcc      ...  4.670
Radial Grid Type                 RadialGrid  ... Gauss-Chebyshev
Angular Grid (max. acc.)         AngularGrid ... Lebedev-302
Angular grid pruning method      GridPruning ... 3 (G Style)
Weight generation scheme         WeightScheme... Becke
Basis function cutoff            BFCut       ...    1.0000e-11
Integration weight cutoff        WCut        ...    1.0000e-14
Grids for H and He will be reduced by one unit

# of grid points (after initial pruning)     ...  85936 (   0.0 sec)
# of grid points (after weights+screening)   ...  79017 (   0.1 sec)
nearest neighbour list constructed           ...    0.0 sec
Grid point re-assignment to atoms done       ...    0.0 sec
Grid point division into batches done        ...    0.3 sec
Reduced shell lists constructed in    0.7 sec

Total number of grid points                  ...    79017
Total number of batches                      ...     1244
Average number of points per batch           ...       63
Average number of grid points per atom       ...     4939
Average number of shells per batch           ...    48.17 (58.04%)
Average number of basis functions per batch  ...   104.66 (57.19%)
Average number of large shells per batch     ...    35.78 (74.29%)
Average number of large basis fcns per batch ...    76.97 (73.54%)
Maximum spatial batch extension              ...  23.51, 18.38, 22.10 au
Average spatial batch extension              ...   2.46,  2.41,  2.62 au

Final grid set up in    0.9 sec
Final integration                            ... done (   1.4 sec)
Change in XC energy                          ...     0.001148066
Integrated number of electrons               ...    89.000108667
Previous integrated no of electrons          ...    89.004804116

----------------
TOTAL SCF ENERGY
----------------

Total Energy       :         -926.02551038 Eh          -25198.43520 eV

Components:
Nuclear Repulsion  :          732.35708052 Eh           19928.44930 eV
Electronic Energy  :        -1658.38259090 Eh          -45126.88450 eV
One Electron Energy:        -2724.01707909 Eh          -74124.27313 eV
Two Electron Energy:         1065.63448819 Eh           28997.38862 eV

Virial components:
Potential Energy   :        -1847.14877833 Eh          -50263.47360 eV
Kinetic Energy     :          921.12326795 Eh           25065.03840 eV
Virial Ratio       :            2.00532203


DFT components:
N(Alpha)           :       45.000054169362 electrons
N(Beta)            :       44.000054497973 electrons
N(Total)           :       89.000108667334 electrons
E(XC)              :      -66.949364464142 Eh       
DFET-embed. en.    :        0.000000000000 Eh       

---------------
SCF CONVERGENCE
---------------

  Last Energy change         ...    3.7729e-09  Tolerance :   1.0000e-08
  Last MAX-Density change    ...    5.4678e-08  Tolerance :   1.0000e-07
  Last RMS-Density change    ...    1.7997e-09  Tolerance :   5.0000e-09
  Last DIIS Error            ...    3.0182e-04  Tolerance :   5.0000e-07

             **** THE GBW FILE WAS UPDATED (051538824.gbw) ****
             **** DENSITY FILE WAS UPDATED (051538824.scfp) ****
             **** ENERGY FILE WAS UPDATED (051538824.en.tmp) ****
----------------------
UHF SPIN CONTAMINATION
----------------------

Warning: in a DFT calculation there is little theoretical justification to 
         calculate <S**2> as in Hartree-Fock theory. We will do it anyways
         but you should keep in mind that the values have only limited relevance

Expectation value of <S**2>     :     0.791457
Ideal value S*(S+1) for S=0.5   :     0.750000
Deviation                       :     0.041457

             **** THE GBW FILE WAS UPDATED (051538824.gbw) ****
             **** DENSITY FILE WAS UPDATED (051538824.scfp) ****
----------------
ORBITAL ENERGIES
----------------
                 SPIN UP ORBITALS
  NO   OCC          E(Eh)            E(eV) 
   0   1.0000     -89.099997     -2424.5342 
   1   1.0000     -19.155996      -521.2612 
   2   1.0000     -19.150648      -521.1156 
   3   1.0000     -19.149967      -521.0971 
   4   1.0000     -14.603207      -397.3735 
   5   1.0000     -14.490715      -394.3124 
   6   1.0000     -10.456089      -284.5247 
   7   1.0000     -10.391567      -282.7689 
   8   1.0000     -10.384839      -282.5858 
   9   1.0000     -10.367440      -282.1124 
  10   1.0000     -10.346488      -281.5422 
  11   1.0000      -8.180270      -222.5965 
  12   1.0000      -6.138881      -167.0474 
  13   1.0000      -6.138301      -167.0317 
  14   1.0000      -6.138084      -167.0258 
  15   1.0000      -1.189442       -32.3664 
  16   1.0000      -1.181034       -32.1376 
  17   1.0000      -1.134218       -30.8636 
  18   1.0000      -1.039183       -28.2776 
  19   1.0000      -1.036216       -28.1969 
  20   1.0000      -0.987189       -26.8628 
  21   1.0000      -0.948042       -25.7975 
  22   1.0000      -0.833383       -22.6775 
  23   1.0000      -0.823986       -22.4218 
  24   1.0000      -0.755360       -20.5544 
  25   1.0000      -0.736808       -20.0496 
  26   1.0000      -0.655669       -17.8417 
  27   1.0000      -0.653158       -17.7733 
  28   1.0000      -0.630767       -17.1640 
  29   1.0000      -0.627607       -17.0781 
  30   1.0000      -0.609621       -16.5886 
  31   1.0000      -0.576045       -15.6750 
  32   1.0000      -0.558390       -15.1946 
  33   1.0000      -0.535097       -14.5607 
  34   1.0000      -0.495679       -13.4881 
  35   1.0000      -0.495170       -13.4743 
  36   1.0000      -0.435374       -11.8471 
  37   1.0000      -0.425126       -11.5683 
  38   1.0000      -0.423409       -11.5215 
  39   1.0000      -0.381098       -10.3702 
  40   1.0000      -0.378524       -10.3002 
  41   1.0000      -0.350964        -9.5502 
  42   1.0000      -0.343466        -9.3462 
  43   1.0000      -0.317316        -8.6346 
  44   1.0000      -0.293907        -7.9976 
  45   0.0000      -0.013298        -0.3619 
  46   0.0000       0.010035         0.2731 
  47   0.0000       0.058059         1.5799 
  48   0.0000       0.098363         2.6766 
  49   0.0000       0.127347         3.4653 
  50   0.0000       0.179557         4.8860 
  51   0.0000       0.181748         4.9456 
  52   0.0000       0.194231         5.2853 
  53   0.0000       0.218960         5.9582 
  54   0.0000       0.242407         6.5962 
  55   0.0000       0.265065         7.2128 
  56   0.0000       0.278730         7.5846 
  57   0.0000       0.309274         8.4158 
  58   0.0000       0.330623         8.9967 
  59   0.0000       0.353871         9.6293 
  60   0.0000       0.357386         9.7250 
  61   0.0000       0.389402        10.5962 
  62   0.0000       0.396711        10.7951 
  63   0.0000       0.422299        11.4913 
  64   0.0000       0.443833        12.0773 
  65   0.0000       0.485968        13.2239 
  66   0.0000       0.487438        13.2639 
  67   0.0000       0.499812        13.6006 
  68   0.0000       0.513396        13.9702 
  69   0.0000       0.551585        15.0094 
  70   0.0000       0.562425        15.3044 
  71   0.0000       0.571427        15.5493 
  72   0.0000       0.584041        15.8926 
  73   0.0000       0.610059        16.6006 
  74   0.0000       0.657315        17.8864 
  75   0.0000       0.659807        17.9543 
  76   0.0000       0.675712        18.3871 
  77   0.0000       0.680223        18.5098 
  78   0.0000       0.700099        19.0507 
  79   0.0000       0.709906        19.3175 
  80   0.0000       0.736409        20.0387 
  81   0.0000       0.748104        20.3569 
  82   0.0000       0.751836        20.4585 
  83   0.0000       0.753762        20.5109 
  84   0.0000       0.790990        21.5239 
  85   0.0000       0.822450        22.3800 
  86   0.0000       0.823231        22.4013 
  87   0.0000       0.830672        22.6037 
  88   0.0000       0.856735        23.3129 
  89   0.0000       0.861300        23.4372 
  90   0.0000       0.875587        23.8259 
  91   0.0000       0.899211        24.4688 
  92   0.0000       0.965864        26.2825 
  93   0.0000       0.973391        26.4873 
  94   0.0000       0.980766        26.6880 
  95   0.0000       1.015795        27.6412 
  96   0.0000       1.028398        27.9841 
  97   0.0000       1.054336        28.6900 
  98   0.0000       1.084849        29.5202 
  99   0.0000       1.141691        31.0670 
 100   0.0000       1.149258        31.2729 
 101   0.0000       1.157071        31.4855 
 102   0.0000       1.177271        32.0352 
 103   0.0000       1.197761        32.5927 
 104   0.0000       1.199714        32.6459 
 105   0.0000       1.201881        32.7048 
 106   0.0000       1.236444        33.6454 
 107   0.0000       1.261806        34.3355 
 108   0.0000       1.265041        34.4235 
 109   0.0000       1.272016        34.6133 
 110   0.0000       1.294920        35.2366 
 111   0.0000       1.297893        35.3175 
 112   0.0000       1.329224        36.1700 
 113   0.0000       1.337920        36.4066 
 114   0.0000       1.360461        37.0200 
 115   0.0000       1.370656        37.2974 
 116   0.0000       1.440071        39.1863 
 117   0.0000       1.445885        39.3445 
 118   0.0000       1.463853        39.8335 
 119   0.0000       1.520198        41.3667 
 120   0.0000       1.524869        41.4938 
 121   0.0000       1.549938        42.1760 
 122   0.0000       1.644260        44.7426 
 123   0.0000       1.672987        45.5243 
 124   0.0000       1.725966        46.9659 
 125   0.0000       1.726200        46.9723 
 126   0.0000       1.747010        47.5386 
 127   0.0000       1.759897        47.8892 
 128   0.0000       1.769507        48.1507 
 129   0.0000       1.807128        49.1745 
 130   0.0000       1.820324        49.5335 
 131   0.0000       1.839185        50.0468 
 132   0.0000       1.861573        50.6560 
 133   0.0000       1.866644        50.7940 
 134   0.0000       1.878207        51.1086 
 135   0.0000       1.924809        52.3767 
 136   0.0000       1.967016        53.5252 
 137   0.0000       1.994363        54.2694 
 138   0.0000       2.032624        55.3105 
 139   0.0000       2.127453        57.8909 
 140   0.0000       2.150722        58.5241 
 141   0.0000       2.171991        59.1029 
 142   0.0000       2.185181        59.4618 
 143   0.0000       2.212878        60.2155 
 144   0.0000       2.237329        60.8808 
 145   0.0000       2.296833        62.5000 
 146   0.0000       2.312134        62.9164 
 147   0.0000       2.358438        64.1763 
 148   0.0000       2.366400        64.3930 
 149   0.0000       2.398667        65.2710 
 150   0.0000       2.487916        67.6996 
 151   0.0000       2.604000        70.8584 
 152   0.0000       2.612132        71.0797 
 153   0.0000       2.620261        71.3009 
 154   0.0000       2.690487        73.2119 
 155   0.0000       2.713280        73.8321 
 156   0.0000       2.719301        73.9959 
 157   0.0000       2.730054        74.2885 
 158   0.0000       2.784808        75.7785 
 159   0.0000       2.794787        76.0500 
 160   0.0000       2.804349        76.3102 
 161   0.0000       2.815797        76.6217 
 162   0.0000       2.833862        77.1133 
 163   0.0000       2.848601        77.5144 
 164   0.0000       2.865058        77.9622 
 165   0.0000       2.904283        79.0296 
 166   0.0000       2.910624        79.2021 
 167   0.0000       2.931981        79.7832 
 168   0.0000       2.971290        80.8529 
 169   0.0000       2.990399        81.3729 
 170   0.0000       2.993655        81.4615 
 171   0.0000       3.022675        82.2512 
 172   0.0000       3.117554        84.8330 
 173   0.0000       3.141886        85.4951 
 174   0.0000       3.228175        87.8431 
 175   0.0000       3.243447        88.2587 
 176   0.0000       3.251761        88.4849 
 177   0.0000       3.391203        92.2793 
 178   0.0000       3.435541        93.4858 
 179   0.0000       3.542678        96.4012 
 180   0.0000       3.619127        98.4815 
 181   0.0000       3.632535        98.8463 
 182   0.0000       3.707618       100.8894 

                 SPIN DOWN ORBITALS
  NO   OCC          E(Eh)            E(eV) 
   0   1.0000     -89.099991     -2424.5340 
   1   1.0000     -19.156010      -521.2615 
   2   1.0000     -19.150561      -521.1133 
   3   1.0000     -19.149929      -521.0961 
   4   1.0000     -14.596785      -397.1987 
   5   1.0000     -14.486089      -394.1865 
   6   1.0000     -10.455681      -284.5136 
   7   1.0000     -10.392932      -282.8061 
   8   1.0000     -10.382591      -282.5247 
   9   1.0000     -10.365047      -282.0473 
  10   1.0000     -10.347977      -281.5828 
  11   1.0000      -8.180258      -222.5961 
  12   1.0000      -6.138849      -167.0466 
  13   1.0000      -6.138296      -167.0315 
  14   1.0000      -6.138075      -167.0255 
  15   1.0000      -1.188718       -32.3467 
  16   1.0000      -1.166391       -31.7391 
  17   1.0000      -1.122622       -30.5481 
  18   1.0000      -1.039023       -28.2732 
  19   1.0000      -1.035917       -28.1887 
  20   1.0000      -0.968818       -26.3629 
  21   1.0000      -0.943443       -25.6724 
  22   1.0000      -0.828537       -22.5456 
  23   1.0000      -0.818083       -22.2612 
  24   1.0000      -0.748471       -20.3669 
  25   1.0000      -0.733638       -19.9633 
  26   1.0000      -0.651650       -17.7323 
  27   1.0000      -0.648898       -17.6574 
  28   1.0000      -0.627500       -17.0752 
  29   1.0000      -0.608564       -16.5599 
  30   1.0000      -0.593259       -16.1434 
  31   1.0000      -0.574509       -15.6332 
  32   1.0000      -0.533305       -14.5120 
  33   1.0000      -0.512502       -13.9459 
  34   1.0000      -0.495374       -13.4798 
  35   1.0000      -0.493486       -13.4284 
  36   1.0000      -0.419085       -11.4039 
  37   1.0000      -0.416576       -11.3356 
  38   1.0000      -0.381124       -10.3709 
  39   1.0000      -0.378516       -10.2999 
  40   1.0000      -0.349994        -9.5238 
  41   1.0000      -0.338768        -9.2184 
  42   1.0000      -0.316922        -8.6239 
  43   1.0000      -0.293657        -7.9908 
  44   0.0000      -0.177540        -4.8311 
  45   0.0000       0.013087         0.3561 
  46   0.0000       0.030804         0.8382 
  47   0.0000       0.061572         1.6755 
  48   0.0000       0.100339         2.7304 
  49   0.0000       0.129372         3.5204 
  50   0.0000       0.182071         4.9544 
  51   0.0000       0.196698         5.3524 
  52   0.0000       0.197112         5.3637 
  53   0.0000       0.218775         5.9532 
  54   0.0000       0.245764         6.6876 
  55   0.0000       0.266578         7.2540 
  56   0.0000       0.279317         7.6006 
  57   0.0000       0.311578         8.4785 
  58   0.0000       0.332831         9.0568 
  59   0.0000       0.353894         9.6300 
  60   0.0000       0.358845         9.7647 
  61   0.0000       0.389265        10.5924 
  62   0.0000       0.400963        10.9108 
  63   0.0000       0.424748        11.5580 
  64   0.0000       0.445036        12.1100 
  65   0.0000       0.487531        13.2664 
  66   0.0000       0.492094        13.3906 
  67   0.0000       0.502935        13.6856 
  68   0.0000       0.518130        14.0990 
  69   0.0000       0.553971        15.0743 
  70   0.0000       0.567149        15.4329 
  71   0.0000       0.573237        15.5986 
  72   0.0000       0.590157        16.0590 
  73   0.0000       0.611329        16.6351 
  74   0.0000       0.661774        18.0078 
  75   0.0000       0.662653        18.0317 
  76   0.0000       0.678968        18.4757 
  77   0.0000       0.682381        18.5685 
  78   0.0000       0.701785        19.0965 
  79   0.0000       0.712726        19.3943 
  80   0.0000       0.740899        20.1609 
  81   0.0000       0.749867        20.4049 
  82   0.0000       0.755171        20.5493 
  83   0.0000       0.774595        21.0778 
  84   0.0000       0.793372        21.5888 
  85   0.0000       0.824752        22.4426 
  86   0.0000       0.825311        22.4578 
  87   0.0000       0.832230        22.6461 
  88   0.0000       0.858462        23.3599 
  89   0.0000       0.865482        23.5510 
  90   0.0000       0.877270        23.8717 
  91   0.0000       0.899399        24.4739 
  92   0.0000       0.976468        26.5710 
  93   0.0000       0.980552        26.6822 
  94   0.0000       0.984363        26.7859 
  95   0.0000       1.016680        27.6653 
  96   0.0000       1.029033        28.0014 
  97   0.0000       1.055375        28.7182 
  98   0.0000       1.085879        29.5483 
  99   0.0000       1.143920        31.1276 
 100   0.0000       1.150895        31.3174 
 101   0.0000       1.159086        31.5403 
 102   0.0000       1.179483        32.0954 
 103   0.0000       1.198472        32.6121 
 104   0.0000       1.202236        32.7145 
 105   0.0000       1.210031        32.9266 
 106   0.0000       1.241861        33.7928 
 107   0.0000       1.264372        34.4053 
 108   0.0000       1.270332        34.5675 
 109   0.0000       1.278086        34.7785 
 110   0.0000       1.299673        35.3659 
 111   0.0000       1.305127        35.5143 
 112   0.0000       1.330632        36.2083 
 113   0.0000       1.338719        36.4284 
 114   0.0000       1.364331        37.1253 
 115   0.0000       1.372565        37.3494 
 116   0.0000       1.440384        39.1948 
 117   0.0000       1.446485        39.3609 
 118   0.0000       1.464919        39.8625 
 119   0.0000       1.521038        41.3895 
 120   0.0000       1.528475        41.5919 
 121   0.0000       1.551416        42.2162 
 122   0.0000       1.645629        44.7798 
 123   0.0000       1.674201        45.5573 
 124   0.0000       1.728810        47.0433 
 125   0.0000       1.732378        47.1404 
 126   0.0000       1.748370        47.5756 
 127   0.0000       1.767644        48.1000 
 128   0.0000       1.772928        48.2438 
 129   0.0000       1.808722        49.2178 
 130   0.0000       1.826548        49.7029 
 131   0.0000       1.844827        50.2003 
 132   0.0000       1.863874        50.7186 
 133   0.0000       1.868115        50.8340 
 134   0.0000       1.882802        51.2336 
 135   0.0000       1.929072        52.4927 
 136   0.0000       1.967857        53.5481 
 137   0.0000       1.997453        54.3535 
 138   0.0000       2.034762        55.3687 
 139   0.0000       2.133032        58.0427 
 140   0.0000       2.151341        58.5410 
 141   0.0000       2.178346        59.2758 
 142   0.0000       2.190751        59.6134 
 143   0.0000       2.228568        60.6424 
 144   0.0000       2.246442        61.1288 
 145   0.0000       2.298569        62.5472 
 146   0.0000       2.325668        63.2847 
 147   0.0000       2.368169        64.4412 
 148   0.0000       2.369994        64.4908 
 149   0.0000       2.406050        65.4719 
 150   0.0000       2.490732        67.7763 
 151   0.0000       2.624410        71.4138 
 152   0.0000       2.628425        71.5231 
 153   0.0000       2.629477        71.5517 
 154   0.0000       2.693289        73.2881 
 155   0.0000       2.727435        74.2173 
 156   0.0000       2.729885        74.2839 
 157   0.0000       2.732540        74.3562 
 158   0.0000       2.784796        75.7781 
 159   0.0000       2.795061        76.0575 
 160   0.0000       2.804641        76.3182 
 161   0.0000       2.816308        76.6356 
 162   0.0000       2.834686        77.1357 
 163   0.0000       2.850884        77.5765 
 164   0.0000       2.868426        78.0538 
 165   0.0000       2.906574        79.0919 
 166   0.0000       2.922896        79.5360 
 167   0.0000       2.935627        79.8825 
 168   0.0000       2.983963        81.1978 
 169   0.0000       2.991159        81.3936 
 170   0.0000       2.993916        81.4686 
 171   0.0000       3.023667        82.2782 
 172   0.0000       3.129043        85.1456 
 173   0.0000       3.145170        85.5844 
 174   0.0000       3.228361        87.8482 
 175   0.0000       3.243629        88.2636 
 176   0.0000       3.258331        88.6637 
 177   0.0000       3.394921        92.3805 
 178   0.0000       3.435715        93.4906 
 179   0.0000       3.548123        96.5493 
 180   0.0000       3.619258        98.4850 
 181   0.0000       3.632675        98.8501 
 182   0.0000       3.710940       100.9798 

                    ********************************
                    * MULLIKEN POPULATION ANALYSIS *
                    ********************************

--------------------------------------------
MULLIKEN ATOMIC CHARGES AND SPIN POPULATIONS
--------------------------------------------
   0 C :   -0.037028    0.260052
   1 C :    0.083893   -0.149342
   2 N :    0.015118    0.343315
   3 C :   -0.210705   -0.165199
   4 C :    0.074162    0.283378
   5 C :    0.054934    0.070541
   6 N :    0.045764    0.386888
   7 H :    0.174292   -0.013092
   8 H :    0.185579   -0.013062
   9 H :    0.062164   -0.011205
  10 S :    1.003981    0.006690
  11 O :   -0.511824    0.006108
  12 O :   -0.537200   -0.000552
  13 O :   -0.510542    0.002305
  14 H :    0.067661    0.004714
  15 H :    0.039751   -0.011540
Sum of atomic charges         :    0.0000000
Sum of atomic spin populations:    1.0000000

-----------------------------------------------------
MULLIKEN REDUCED ORBITAL CHARGES AND SPIN POPULATIONS
-----------------------------------------------------
CHARGE
  0 C s       :     3.181339  s :     3.181339
      pz      :     1.001713  p :     2.824115
      px      :     0.903892
      py      :     0.918509
      dz2     :     0.002753  d :     0.031574
      dxz     :     0.003068
      dyz     :     0.004802
      dx2y2   :     0.012066
      dxy     :     0.008885
  1 C s       :     3.137243  s :     3.137243
      pz      :     0.892237  p :     2.722035
      px      :     0.904159
      py      :     0.925639
      dz2     :     0.003443  d :     0.056829
      dxz     :     0.008646
      dyz     :     0.004027
      dx2y2   :     0.019227
      dxy     :     0.021486
  2 N s       :     3.448308  s :     3.448308
      pz      :     0.967182  p :     3.503286
      px      :     1.250105
      py      :     1.285998
      dz2     :     0.003554  d :     0.033289
      dxz     :     0.004620
      dyz     :     0.005044
      dx2y2   :     0.013579
      dxy     :     0.006492
  3 C s       :     3.140695  s :     3.140695
      pz      :     0.849430  p :     3.006729
      px      :     1.160688
      py      :     0.996612
      dz2     :     0.004231  d :     0.063282
      dxz     :     0.006681
      dyz     :     0.008393
      dx2y2   :     0.019963
      dxy     :     0.024014
  4 C s       :     3.217972  s :     3.217972
      pz      :     0.914355  p :     2.674103
      px      :     0.815376
      py      :     0.944372
      dz2     :     0.002676  d :     0.033762
      dxz     :     0.004005
      dyz     :     0.003634
      dx2y2   :     0.013986
      dxy     :     0.009461
  5 C s       :     3.008678  s :     3.008678
      pz      :     0.857660  p :     2.870425
      px      :     1.019260
      py      :     0.993505
      dz2     :     0.004437  d :     0.065964
      dxz     :     0.011637
      dyz     :     0.011591
      dx2y2   :     0.016191
      dxy     :     0.022109
  6 N s       :     3.300265  s :     3.300265
      pz      :     1.483162  p :     3.638036
      px      :     1.070475
      py      :     1.084399
      dz2     :     0.001593  d :     0.015935
      dxz     :     0.001455
      dyz     :     0.001577
      dx2y2   :     0.006959
      dxy     :     0.004352
  7 H s       :     0.780664  s :     0.780664
      pz      :     0.010592  p :     0.045045
      px      :     0.026164
      py      :     0.008289
  8 H s       :     0.769442  s :     0.769442
      pz      :     0.010272  p :     0.044979
      px      :     0.008825
      py      :     0.025882
  9 H s       :     0.912311  s :     0.912311
      pz      :     0.003867  p :     0.025524
      px      :     0.006546
      py      :     0.015112
 10 S s       :     5.206231  s :     5.206231
      pz      :     2.932891  p :     8.893026
      px      :     3.026785
      py      :     2.933350
      dz2     :     0.220401  d :     0.896762
      dxz     :     0.141348
      dyz     :     0.222273
      dx2y2   :     0.181775
      dxy     :     0.130964
 11 O s       :     3.829271  s :     3.829271
      pz      :     1.377643  p :     4.664636
      px      :     1.648376
      py      :     1.638617
      dz2     :     0.005956  d :     0.017917
      dxz     :     0.004345
      dyz     :     0.005148
      dx2y2   :     0.001184
      dxy     :     0.001284
 12 O s       :     3.814211  s :     3.814211
      pz      :     1.729544  p :     4.705477
      px      :     1.669635
      py      :     1.306299
      dz2     :     0.002039  d :     0.017511
      dxz     :     0.000078
      dyz     :     0.004528
      dx2y2   :     0.005841
      dxy     :     0.005026
 13 O s       :     3.828294  s :     3.828294
      pz      :     1.408410  p :     4.664223
      px      :     1.643802
      py      :     1.612011
      dz2     :     0.005368  d :     0.018025
      dxz     :     0.004130
      dyz     :     0.005229
      dx2y2   :     0.001581
      dxy     :     0.001718
 14 H s       :     0.910425  s :     0.910425
      pz      :     0.003634  p :     0.021914
      px      :     0.002152
      py      :     0.016128
 15 H s       :     0.936515  s :     0.936515
      pz      :     0.004761  p :     0.023734
      px      :     0.014691
      py      :     0.004283

SPIN
  0 C s       :     0.024458  s :     0.024458
      pz      :     0.223104  p :     0.236412
      px      :     0.008140
      py      :     0.005168
      dz2     :    -0.000667  d :    -0.000818
      dxz     :    -0.000413
      dyz     :     0.000405
      dx2y2   :     0.000002
      dxy     :    -0.000144
  1 C s       :    -0.015822  s :    -0.015822
      pz      :    -0.113332  p :    -0.138167
      px      :    -0.015330
      py      :    -0.009505
      dz2     :     0.000248  d :     0.004647
      dxz     :     0.004244
      dyz     :     0.000190
      dx2y2   :     0.000024
      dxy     :    -0.000059
  2 N s       :     0.017225  s :     0.017225
      pz      :     0.309050  p :     0.326866
      px      :     0.009016
      py      :     0.008801
      dz2     :    -0.000236  d :    -0.000777
      dxz     :    -0.000040
      dyz     :    -0.000554
      dx2y2   :     0.000045
      dxy     :     0.000008
  3 C s       :    -0.018159  s :    -0.018159
      pz      :    -0.122203  p :    -0.151918
      px      :    -0.013398
      py      :    -0.016317
      dz2     :     0.000272  d :     0.004878
      dxz     :    -0.000017
      dyz     :     0.004722
      dx2y2   :    -0.000010
      dxy     :    -0.000090
  4 C s       :     0.030826  s :     0.030826
      pz      :     0.238070  p :     0.253334
      px      :     0.006338
      py      :     0.008926
      dz2     :    -0.000736  d :    -0.000782
      dxz     :     0.000475
      dyz     :    -0.000419
      dx2y2   :     0.000037
      dxy     :    -0.000140
  5 C s       :    -0.004004  s :    -0.004004
      pz      :     0.089983  p :     0.067794
      px      :    -0.012104
      py      :    -0.010085
      dz2     :    -0.000318  d :     0.006751
      dxz     :     0.003420
      dyz     :     0.003427
      dx2y2   :     0.000255
      dxy     :    -0.000033
  6 N s       :     0.021130  s :     0.021130
      pz      :     0.342313  p :     0.366686
      px      :     0.012335
      py      :     0.012037
      dz2     :    -0.000657  d :    -0.000927
      dxz     :    -0.000060
      dyz     :    -0.000094
      dx2y2   :    -0.000023
      dxy     :    -0.000093
  7 H s       :    -0.016356  s :    -0.016356
      pz      :     0.003096  p :     0.003264
      px      :     0.000204
      py      :    -0.000036
  8 H s       :    -0.016203  s :    -0.016203
      pz      :     0.002982  p :     0.003141
      px      :    -0.000034
      py      :     0.000193
  9 H s       :    -0.012367  s :    -0.012367
      pz      :     0.001077  p :     0.001162
      px      :    -0.000028
      py      :     0.000114
 10 S s       :     0.001758  s :     0.001758
      pz      :     0.001514  p :     0.002655
      px      :     0.001399
      py      :    -0.000258
      dz2     :     0.000277  d :     0.002277
      dxz     :     0.001322
      dyz     :     0.000302
      dx2y2   :     0.000281
      dxy     :     0.000096
 11 O s       :    -0.000050  s :    -0.000050
      pz      :     0.000314  p :     0.006137
      px      :     0.002072
      py      :     0.003751
      dz2     :     0.000006  d :     0.000020
      dxz     :     0.000005
      dyz     :     0.000003
      dx2y2   :     0.000004
      dxy     :     0.000003
 12 O s       :    -0.000062  s :    -0.000062
      pz      :    -0.000941  p :    -0.000491
      px      :     0.000289
      py      :     0.000161
      dz2     :    -0.000000  d :     0.000001
      dxz     :     0.000003
      dyz     :     0.000001
      dx2y2   :     0.000001
      dxy     :    -0.000003
 13 O s       :    -0.000106  s :    -0.000106
      pz      :    -0.000075  p :     0.002394
      px      :    -0.000810
      py      :     0.003279
      dz2     :     0.000005  d :     0.000017
      dxz     :     0.000001
      dyz     :     0.000003
      dx2y2   :     0.000006
      dxy     :     0.000001
 14 H s       :     0.005315  s :     0.005315
      pz      :    -0.000543  p :    -0.000601
      px      :    -0.000017
      py      :    -0.000042
 15 H s       :    -0.012781  s :    -0.012781
      pz      :     0.001149  p :     0.001241
      px      :     0.000123
      py      :    -0.000031


                     *******************************
                     * LOEWDIN POPULATION ANALYSIS *
                     *******************************

-------------------------------------------
LOEWDIN ATOMIC CHARGES AND SPIN POPULATIONS
-------------------------------------------
   0 C :   -0.030637    0.216507
   1 C :    0.058882   -0.100200
   2 N :    0.040088    0.303550
   3 C :   -0.134365   -0.106808
   4 C :    0.003847    0.233840
   5 C :    0.080708    0.091657
   6 N :    0.177756    0.347685
   7 H :    0.107467    0.002939
   8 H :    0.114919    0.002820
   9 H :    0.052886   -0.001514
  10 S :    1.084970    0.003580
  11 O :   -0.540036    0.005833
  12 O :   -0.564644   -0.000566
  13 O :   -0.539684    0.002203
  14 H :    0.044568   -0.000202
  15 H :    0.043276   -0.001324

----------------------------------------------------
LOEWDIN REDUCED ORBITAL CHARGES AND SPIN POPULATIONS
----------------------------------------------------
CHARGE
  0 C s       :     2.863004  s :     2.863004
      pz      :     0.975605  p :     3.080722
      px      :     1.064728
      py      :     1.040390
      dz2     :     0.006691  d :     0.086911
      dxz     :     0.004992
      dyz     :     0.010167
      dx2y2   :     0.036709
      dxy     :     0.028353
  1 C s       :     2.853351  s :     2.853351
      pz      :     0.884759  p :     2.951488
      px      :     1.013387
      py      :     1.053341
      dz2     :     0.008365  d :     0.136279
      dxz     :     0.016884
      dyz     :     0.006350
      dx2y2   :     0.051106
      dxy     :     0.053574
  2 N s       :     3.195479  s :     3.195479
      pz      :     0.957833  p :     3.694808
      px      :     1.352778
      py      :     1.384196
      dz2     :     0.007053  d :     0.069626
      dxz     :     0.007282
      dyz     :     0.007866
      dx2y2   :     0.030091
      dxy     :     0.017333
  3 C s       :     2.925020  s :     2.925020
      pz      :     0.845475  p :     3.060048
      px      :     1.163516
      py      :     1.051057
      dz2     :     0.010881  d :     0.149297
      dxz     :     0.009940
      dyz     :     0.016909
      dx2y2   :     0.052440
      dxy     :     0.059128
  4 C s       :     2.869156  s :     2.869156
      pz      :     0.903763  p :     3.033665
      px      :     1.032584
      py      :     1.097318
      dz2     :     0.007018  d :     0.093333
      dxz     :     0.008437
      dyz     :     0.005915
      dx2y2   :     0.042206
      dxy     :     0.029757
  5 C s       :     2.837927  s :     2.837927
      pz      :     0.840198  p :     2.927077
      px      :     1.049181
      py      :     1.037698
      dz2     :     0.010081  d :     0.154288
      dxz     :     0.022229
      dyz     :     0.022613
      dx2y2   :     0.042147
      dxy     :     0.057218
  6 N s       :     3.022407  s :     3.022407
      pz      :     1.414694  p :     3.756723
      px      :     1.168954
      py      :     1.173075
      dz2     :     0.002827  d :     0.043114
      dxz     :     0.002600
      dyz     :     0.002809
      dx2y2   :     0.020988
      dxy     :     0.013889
  7 H s       :     0.769097  s :     0.769097
      pz      :     0.033830  p :     0.123436
      px      :     0.070183
      py      :     0.019422
  8 H s       :     0.761778  s :     0.761778
      pz      :     0.033428  p :     0.123304
      px      :     0.020734
      py      :     0.069142
  9 H s       :     0.867477  s :     0.867477
      pz      :     0.013648  p :     0.079637
      px      :     0.021558
      py      :     0.044431
 10 S s       :     4.986481  s :     4.986481
      pz      :     2.914409  p :     8.753235
      px      :     2.930578
      py      :     2.908247
      dz2     :     0.296275  d :     1.175315
      dxz     :     0.172897
      dyz     :     0.291143
      dx2y2   :     0.255370
      dxy     :     0.159629
 11 O s       :     3.670723  s :     3.670723
      pz      :     1.499104  p :     4.840675
      px      :     1.661892
      py      :     1.679679
      dz2     :     0.010416  d :     0.028638
      dxz     :     0.005910
      dyz     :     0.009098
      dx2y2   :     0.001523
      dxy     :     0.001691
 12 O s       :     3.662413  s :     3.662413
      pz      :     1.749683  p :     4.874269
      px      :     1.678467
      py      :     1.446119
      dz2     :     0.004168  d :     0.027963
      dxz     :     0.000099
      dyz     :     0.005656
      dx2y2   :     0.012225
      dxy     :     0.005815
 13 O s       :     3.669862  s :     3.669862
      pz      :     1.521066  p :     4.841052
      px      :     1.659588
      py      :     1.660398
      dz2     :     0.008717  d :     0.028770
      dxz     :     0.005867
      dyz     :     0.009778
      dx2y2   :     0.002041
      dxy     :     0.002366
 14 H s       :     0.887151  s :     0.887151
      pz      :     0.011868  p :     0.068281
      px      :     0.009710
      py      :     0.046703
 15 H s       :     0.883668  s :     0.883668
      pz      :     0.015891  p :     0.073056
      px      :     0.042234
      py      :     0.014932

SPIN
  0 C s       :     0.006174  s :     0.006174
      pz      :     0.204415  p :     0.211909
      px      :     0.004847
      py      :     0.002647
      dz2     :    -0.000683  d :    -0.001577
      dxz     :    -0.000770
      dyz     :     0.000634
      dx2y2   :    -0.000299
      dxy     :    -0.000459
  1 C s       :    -0.005167  s :    -0.005167
      pz      :    -0.093985  p :    -0.105391
      px      :    -0.007800
      py      :    -0.003606
      dz2     :     0.000351  d :     0.010359
      dxz     :     0.008606
      dyz     :     0.000744
      dx2y2   :     0.000370
      dxy     :     0.000288
  2 N s       :     0.007823  s :     0.007823
      pz      :     0.289371  p :     0.298535
      px      :     0.004736
      py      :     0.004428
      dz2     :    -0.000205  d :    -0.002808
      dxz     :    -0.000740
      dyz     :    -0.001371
      dx2y2   :    -0.000372
      dxy     :    -0.000120
  3 C s       :    -0.005791  s :    -0.005791
      pz      :    -0.101008  p :    -0.112813
      px      :    -0.004955
      py      :    -0.006851
      dz2     :     0.000379  d :     0.011796
      dxz     :     0.000548
      dyz     :     0.010165
      dx2y2   :     0.000397
      dxy     :     0.000307
  4 C s       :     0.006747  s :     0.006747
      pz      :     0.221049  p :     0.228854
      px      :     0.002928
      py      :     0.004877
      dz2     :    -0.000737  d :    -0.001762
      dxz     :     0.000587
      dyz     :    -0.000904
      dx2y2   :    -0.000241
      dxy     :    -0.000466
  5 C s       :    -0.000918  s :    -0.000918
      pz      :     0.085953  p :     0.076461
      px      :    -0.004960
      py      :    -0.004531
      dz2     :    -0.000149  d :     0.016115
      dxz     :     0.007422
      dyz     :     0.007587
      dx2y2   :     0.000693
      dxy     :     0.000562
  6 N s       :     0.009986  s :     0.009986
      pz      :     0.325276  p :     0.338757
      px      :     0.006772
      py      :     0.006710
      dz2     :    -0.000506  d :    -0.001058
      dxz     :     0.000099
      dyz     :     0.000069
      dx2y2   :    -0.000407
      dxy     :    -0.000313
  7 H s       :    -0.009761  s :    -0.009761
      pz      :     0.010831  p :     0.012700
      px      :     0.001645
      py      :     0.000224
  8 H s       :    -0.009723  s :    -0.009723
      pz      :     0.010677  p :     0.012543
      px      :     0.000269
      py      :     0.001597
  9 H s       :    -0.006568  s :    -0.006568
      pz      :     0.004058  p :     0.005054
      px      :     0.000166
      py      :     0.000831
 10 S s       :     0.000344  s :     0.000344
      pz      :     0.000173  p :     0.000683
      px      :     0.000677
      py      :    -0.000167
      dz2     :     0.000327  d :     0.002553
      dxz     :     0.001564
      dyz     :     0.000374
      dx2y2   :     0.000190
      dxy     :     0.000098
 11 O s       :     0.000054  s :     0.000054
      pz      :     0.000287  p :     0.005771
      px      :     0.001833
      py      :     0.003651
      dz2     :     0.000004  d :     0.000009
      dxz     :     0.000001
      dyz     :     0.000000
      dx2y2   :     0.000000
      dxy     :     0.000004
 12 O s       :    -0.000028  s :    -0.000028
      pz      :    -0.000965  p :    -0.000538
      px      :     0.000271
      py      :     0.000156
      dz2     :    -0.000000  d :     0.000000
      dxz     :     0.000003
      dyz     :     0.000002
      dx2y2   :    -0.000000
      dxy     :    -0.000004
 13 O s       :     0.000027  s :     0.000027
      pz      :    -0.000070  p :     0.002166
      px      :    -0.000906
      py      :     0.003142
      dz2     :     0.000004  d :     0.000010
      dxz     :     0.000000
      dyz     :    -0.000001
      dx2y2   :     0.000003
      dxy     :     0.000003
 14 H s       :     0.002436  s :     0.002436
      pz      :    -0.002054  p :    -0.002638
      px      :    -0.000165
      py      :    -0.000418
 15 H s       :    -0.006427  s :    -0.006427
      pz      :     0.004215  p :     0.005103
      px      :     0.000777
      py      :     0.000112


                      *****************************
                      * MAYER POPULATION ANALYSIS *
                      *****************************

  NA   - Mulliken gross atomic population
  ZA   - Total nuclear charge
  QA   - Mulliken gross atomic charge
  VA   - Mayer's total valence
  BVA  - Mayer's bonded valence
  FA   - Mayer's free valence

  ATOM       NA         ZA         QA         VA         BVA        FA
  0 C      6.0370     6.0000    -0.0370     3.8044     3.7531     0.0514
  1 C      5.9161     6.0000     0.0839     4.0407     4.0275     0.0132
  2 N      6.9849     7.0000     0.0151     3.1803     3.0841     0.0962
  3 C      6.2107     6.0000    -0.2107     4.0278     4.0124     0.0154
  4 C      5.9258     6.0000     0.0742     3.7814     3.7229     0.0585
  5 C      5.9451     6.0000     0.0549     3.9649     3.9525     0.0124
  6 N      6.9542     7.0000     0.0458     3.5600     3.4369     0.1232
  7 H      0.8257     1.0000     0.1743     0.9841     0.9838     0.0003
  8 H      0.8144     1.0000     0.1856     0.9799     0.9797     0.0003
  9 H      0.9378     1.0000     0.0622     1.0446     1.0444     0.0002
 10 S     14.9960    16.0000     1.0040     5.7936     5.7935     0.0000
 11 O      8.5118     8.0000    -0.5118     1.9062     1.9061     0.0001
 12 O      8.5372     8.0000    -0.5372     1.9159     1.9159     0.0000
 13 O      8.5105     8.0000    -0.5105     1.9079     1.9079     0.0000
 14 H      0.9323     1.0000     0.0677     0.9878     0.9877     0.0000
 15 H      0.9602     1.0000     0.0398     0.9990     0.9989     0.0002

  Mayer bond orders larger than 0.100000
B(  0-C ,  1-C ) :   1.5006 B(  0-C ,  5-C ) :   1.1707 B(  0-C , 15-H ) :   0.9799 
B(  1-C ,  2-N ) :   1.4176 B(  1-C , 14-H ) :   0.9820 B(  2-N ,  3-C ) :   1.4952 
B(  3-C ,  4-C ) :   1.3920 B(  3-C , 10-S ) :   0.7555 B(  4-C ,  5-C ) :   1.1630 
B(  4-C ,  9-H ) :   0.9676 B(  5-C ,  6-N ) :   1.4996 B(  6-N ,  7-H ) :   0.9306 
B(  6-N ,  8-H ) :   0.9264 B( 10-S , 11-O ) :   1.6791 B( 10-S , 12-O ) :   1.6677 
B( 10-S , 13-O ) :   1.6893 

-------
TIMINGS
-------

Total SCF time: 0 days 0 hours 2 min 40 sec 

Total time                  ....     160.582 sec
Sum of individual times     ....     160.206 sec  ( 99.8%)

Fock matrix formation       ....     158.464 sec  ( 98.7%)
  XC integration            ....      10.639 sec  (  6.7% of F)
    Basis function eval.    ....       2.393 sec  ( 22.5% of XC)
    Density eval.           ....       2.252 sec  ( 21.2% of XC)
    XC-Functional eval.     ....       2.301 sec  ( 21.6% of XC)
    XC-Potential eval.      ....       3.440 sec  ( 32.3% of XC)
Diagonalization             ....       0.197 sec  (  0.1%)
Density matrix formation    ....       0.026 sec  (  0.0%)
Population analysis         ....       0.008 sec  (  0.0%)
Initial guess               ....       0.375 sec  (  0.2%)
Orbital Transformation      ....       0.000 sec  (  0.0%)
Orbital Orthonormalization  ....       0.000 sec  (  0.0%)
DIIS solution               ....       0.064 sec  (  0.0%)
Grid generation             ....       1.073 sec  (  0.7%)


-------------------------------------------------------------------------------
                          DFT DISPERSION CORRECTION                            
                                                                               
                              DFTD3 V3.1  Rev 1                                
                              USING zero damping                               
-------------------------------------------------------------------------------
The omegaB97X-D3 functional is recognized. Fit by Chai et al.
Active option DFTDOPT                   ...         3   

molecular C6(AA) [au] = 4061.898948 


            DFT-D V3
 parameters
 s6 scaling factor         :     1.0000 
 rs6 scaling factor        :     1.2810 
 s8 scaling factor         :     1.0000 
 rs8 scaling factor        :     1.0940 
 Damping factor alpha6     :    14.0000 
 Damping factor alpha8     :    16.0000 
 ad hoc parameters k1-k3   :    16.0000     1.3333    -4.0000 

 Edisp/kcal,au: -3.288548151133  -0.005240634502 
 E6   /kcal   :  -1.377317912 
 E8   /kcal   :  -1.911230239 
 % E8         :  58.117751395 

-------------------------   ----------------
Dispersion correction           -0.005240635
-------------------------   ----------------


-------------------------   --------------------
FINAL SINGLE POINT ENERGY      -926.030751018964
-------------------------   --------------------

------------------------------------------------------------------------------
                         ORCA SCF GRADIENT CALCULATION
------------------------------------------------------------------------------

Gradient of the Kohn-Sham DFT energy:
Kohn-Sham wavefunction type      ... UKS
Hartree-Fock exchange scaling    ...    0.196
Number of operators              ...    2
Number of atoms                  ...   16
Basis set dimensions             ...  183
Integral neglect threshold       ... 2.5e-11
Integral primitive cutoff        ... 2.5e-12

Nuclear repulsion gradient       ... done
One Electron Gradient            ... done
Pre-screening matrix             ... done
Starting the two electron gradient:
Two electron gradient done
Exchange-correlation gradient    ... done
Dispersion correction            ... done

------------------
CARTESIAN GRADIENT
------------------

   1   C   :    0.012926143    0.026333112    0.000228700
   2   C   :    0.017400731   -0.016310798   -0.001132385
   3   N   :    0.000542594    0.060623046    0.001597751
   4   C   :   -0.067799765   -0.060936832   -0.001325948
   5   C   :    0.019385820    0.002545121    0.000040316
   6   C   :    0.009446123   -0.031888882    0.000619815
   7   N   :   -0.017115552    0.024847855    0.000106250
   8   H   :    0.011390514    0.000961568   -0.000229040
   9   H   :   -0.002619455   -0.011075711   -0.000002722
  10   H   :   -0.007990712   -0.011101712   -0.000217780
  11   S   :    0.046587264    0.019753932   -0.000652462
  12   O   :   -0.016619122    0.011018036    0.025955994
  13   O   :   -0.003519926   -0.039722248   -0.001245602
  14   O   :   -0.017551999    0.012789926   -0.023920308
  15   H   :    0.004946967    0.009652681   -0.000031436
  16   H   :    0.010590375    0.002510907    0.000208858

Difference to translation invariance:
           :   -0.0000000000    0.0000000000    0.0000000000

Norm of the cartesian gradient     ...    0.1509013829
RMS gradient                       ...    0.0217807385
MAX gradient                       ...    0.0677997647

-------
TIMINGS
-------

Total SCF gradient time            ...       34.211 sec

One electron gradient       ....       0.113 sec  (  0.3%)
Prescreening matrices       ....       0.098 sec  (  0.3%)
Two electron gradient       ....      29.242 sec  ( 85.5%)
XC gradient                 ....       4.608 sec  ( 13.5%)
------------------------------------------------------------------------------
                         ORCA GEOMETRY RELAXATION STEP
------------------------------------------------------------------------------

Reading the OPT-File                    .... done
Getting information on internals        .... done
Copying old internal coords+grads       .... done
Making the new internal coordinates     .... (new redundants).... done
Validating the new internal coordinates .... (new redundants).... done
Calculating the B-matrix                .... done
Calculating the G,G- and P matrices     .... done
Transforming gradient to internals      .... done
Projecting the internal gradient        .... done
Number of atoms                         ....  16
Number of internal coordinates          ....  71
Current Energy                          ....  -926.030751019 Eh
Current gradient norm                   ....     0.150901383 Eh/bohr
Maximum allowed component of the step   ....  0.300
Current trust radius                    ....  0.300
Evaluating the initial hessian          ....  (Almloef) done
Projecting the Hessian                  .... done
Forming the augmented Hessian           .... done
Diagonalizing the augmented Hessian     .... done
Last element of RFO vector              ....  0.985374907
Lowest eigenvalues of augmented Hessian:
 -0.018901267  0.002689767  0.023544392  0.024286101  0.026483042
Length of the computed step             ....  0.172929498
The final length of the internal step   ....  0.172929498
Converting the step to cartesian space:
 Initial RMS(Int)=    0.0205229556
Transforming coordinates:
 Iter   0:  RMS(Cart)=    0.0449749085 RMS(Int)=    1.2910850085
 Iter   1:  RMS(Cart)=    0.0006527447 RMS(Int)=    0.0005169132
 Iter   2:  RMS(Cart)=    0.0000204631 RMS(Int)=    0.0000100642
 Iter   3:  RMS(Cart)=    0.0000008967 RMS(Int)=    0.0000007362
 Iter   4:  RMS(Cart)=    0.0000000296 RMS(Int)=    0.0000000176
done
Storing new coordinates                 .... done

                                .--------------------.
          ----------------------|Geometry convergence|-------------------------
          Item                value                   Tolerance       Converged
          ---------------------------------------------------------------------
          RMS gradient        0.0139719724            0.0001000000      NO
          MAX gradient        0.0676362854            0.0003000000      NO
          RMS step            0.0205229556            0.0020000000      NO
          MAX step            0.0811477662            0.0040000000      NO
          ........................................................
          Max(Bonds)      0.0429      Max(Angles)    2.49
          Max(Dihed)        0.51      Max(Improp)    0.00
          ---------------------------------------------------------------------

The optimization has not yet converged - more geometry cycles are needed


    ---------------------------------------------------------------------------
                         Redundant Internal Coordinates
                            (Angstroem and degrees)

[...]
      dxz     :    -0.000099
      dyz     :    -0.000138
      dx2y2   :     0.000082
      dxy     :    -0.000447
  3 C s       :     0.060845  s :     0.060845
      pz      :     0.013690  p :     0.247227
      px      :     0.231493
      py      :     0.002044
      dz2     :     0.000073  d :     0.005096
      dxz     :    -0.000548
      dyz     :     0.000192
      dx2y2   :     0.003192
      dxy     :     0.002188
  4 C s       :     0.008465  s :     0.008465
      pz      :    -0.009390  p :     0.022594
      px      :     0.012119
      py      :     0.019866
      dz2     :     0.000112  d :     0.001258
      dxz     :    -0.000013
      dyz     :     0.000138
      dx2y2   :     0.000962
      dxy     :     0.000058
  5 C s       :    -0.000276  s :    -0.000276
      pz      :    -0.004574  p :     0.003272
      px      :     0.005288
      py      :     0.002558
      dz2     :     0.000046  d :     0.000570
      dxz     :    -0.000128
      dyz     :    -0.000064
      dx2y2   :    -0.000053
      dxy     :     0.000768
  6 N s       :     0.000364  s :     0.000364
      pz      :    -0.003740  p :    -0.002112
      px      :     0.000733
      py      :     0.000895
      dz2     :     0.000013  d :     0.000073
      dxz     :    -0.000005
      dyz     :    -0.000003
      dx2y2   :     0.000059
      dxy     :     0.000008
  7 H s       :     0.002338  s :     0.002338
      pz      :    -0.000047  p :    -0.000054
      px      :    -0.000018
      py      :     0.000011
  8 H s       :    -0.000051  s :    -0.000051
      pz      :    -0.000044  p :    -0.000039
      px      :    -0.000003
      py      :     0.000008
  9 H s       :    -0.003856  s :    -0.003856
      pz      :    -0.000050  p :     0.000130
      px      :     0.000113
      py      :     0.000067
 10 S s       :     0.017217  s :     0.017217
      pz      :    -0.009047  p :    -0.033783
      px      :    -0.017290
      py      :    -0.007447
      dz2     :     0.013118  d :     0.038747
      dxz     :    -0.004249
      dyz     :    -0.001133
      dx2y2   :     0.029440
      dxy     :     0.001570
 11 O s       :    -0.002158  s :    -0.002158
      pz      :     0.010628  p :     0.123474
      px      :     0.111780
      py      :     0.001066
      dz2     :     0.000015  d :    -0.000127
      dxz     :    -0.000116
      dyz     :     0.000008
      dx2y2   :    -0.000035
      dxy     :    -0.000000
 12 O s       :    -0.001820  s :    -0.001820
      pz      :    -0.000070  p :     0.091191
      px      :     0.059365
      py      :     0.031897
      dz2     :    -0.000009  d :    -0.000122
      dxz     :    -0.000001
      dyz     :     0.000011
      dx2y2   :     0.000063
      dxy     :    -0.000186
 13 O s       :    -0.002170  s :    -0.002170
      pz      :     0.010180  p :     0.122152
      px      :     0.110894
      py      :     0.001078
      dz2     :     0.000014  d :    -0.000126
      dxz     :    -0.000111
      dyz     :     0.000009
      dx2y2   :    -0.000036
      dxy     :    -0.000002
 14 H s       :    -0.002558  s :    -0.002558
      pz      :    -0.000006  p :     0.000147
      px      :     0.000133
      py      :     0.000019
 15 H s       :     0.005149  s :     0.005149
      pz      :    -0.000053  p :    -0.000038
      px      :    -0.000040
      py      :     0.000055


                     *******************************
                     * LOEWDIN POPULATION ANALYSIS *
                     *******************************

-------------------------------------------
LOEWDIN ATOMIC CHARGES AND SPIN POPULATIONS
-------------------------------------------
   0 C :   -0.080717   -0.001049
   1 C :    0.066511    0.035871
   2 N :   -0.003551    0.263828
   3 C :   -0.042129    0.288273
   4 C :   -0.083984    0.040633
   5 C :    0.071036    0.005014
   6 N :    0.004213   -0.000211
   7 H :    0.087575    0.001503
   8 H :    0.090757   -0.000097
   9 H :    0.049086   -0.001129
  10 S :    1.140893    0.042525
  11 O :   -0.454914    0.117941
  12 O :   -0.475337    0.088158
  13 O :   -0.455086    0.116661
  14 H :    0.043451   -0.001072
  15 H :    0.042197    0.003151

----------------------------------------------------
LOEWDIN REDUCED ORBITAL CHARGES AND SPIN POPULATIONS
----------------------------------------------------
CHARGE
  0 C s       :     2.862428  s :     2.862428
      pz      :     1.053218  p :     3.135640
      px      :     1.048014
      py      :     1.034408
      dz2     :     0.006453  d :     0.082649
      dxz     :     0.005022
      dyz     :     0.009599
      dx2y2   :     0.032184
      dxy     :     0.029391
  1 C s       :     2.854954  s :     2.854954
      pz      :     0.914539  p :     2.945061
      px      :     0.973697
      py      :     1.056825
      dz2     :     0.008198  d :     0.133474
      dxz     :     0.023518
      dyz     :     0.006031
      dx2y2   :     0.049372
      dxy     :     0.046354
  2 N s       :     3.147832  s :     3.147832
      pz      :     1.236707  p :     3.792177
      px      :     1.239592
      py      :     1.315878
      dz2     :     0.005723  d :     0.063542
      dxz     :     0.007244
      dyz     :     0.009349
      dx2y2   :     0.026827
      dxy     :     0.014398
  3 C s       :     2.924233  s :     2.924233
      pz      :     0.929001  p :     2.978115
      px      :     0.968211
      py      :     1.080903
      dz2     :     0.009805  d :     0.139782
      dxz     :     0.006165
      dyz     :     0.032664
      dx2y2   :     0.044314
      dxy     :     0.046833
  4 C s       :     2.862135  s :     2.862135
      pz      :     1.061256  p :     3.134669
      px      :     1.019353
      py      :     1.054060
      dz2     :     0.006856  d :     0.087179
      dxz     :     0.008542
      dyz     :     0.006270
      dx2y2   :     0.033049
      dxy     :     0.032464
  5 C s       :     2.834224  s :     2.834224
      pz      :     0.873287  p :     2.941149
      px      :     1.035140
      py      :     1.032723
      dz2     :     0.009517  d :     0.153591
      dxz     :     0.026882
      dyz     :     0.025837
      dx2y2   :     0.041755
      dxy     :     0.049599
  6 N s       :     3.007815  s :     3.007815
      pz      :     1.653847  p :     3.946591
      px      :     1.145171
      py      :     1.147573
      dz2     :     0.002833  d :     0.041381
      dxz     :     0.002336
      dyz     :     0.002488
      dx2y2   :     0.019492
      dxy     :     0.014231
  7 H s       :     0.787889  s :     0.787889
      pz      :     0.041939  p :     0.124537
      px      :     0.064524
      py      :     0.018074
  8 H s       :     0.784901  s :     0.784901
      pz      :     0.041565  p :     0.124342
      px      :     0.018963
      py      :     0.063814
  9 H s       :     0.876745  s :     0.876745
      pz      :     0.015846  p :     0.074169
      px      :     0.016952
      py      :     0.041372
 10 S s       :     5.026857  s :     5.026857
      pz      :     2.909226  p :     8.785589
      px      :     2.967747
      py      :     2.908616
      dz2     :     0.261646  d :     1.046661
      dxz     :     0.166224
      dyz     :     0.284582
      dx2y2   :     0.183879
      dxy     :     0.150330
 11 O s       :     3.690040  s :     3.690040
      pz      :     1.484828  p :     4.735601
      px      :     1.576767
      py      :     1.674006
      dz2     :     0.009880  d :     0.029273
      dxz     :     0.006208
      dyz     :     0.009595
      dx2y2   :     0.001681
      dxy     :     0.001909
 12 O s       :     3.685110  s :     3.685110
      pz      :     1.754340  p :     4.761620
      px      :     1.610246
      py      :     1.397034
      dz2     :     0.004259  d :     0.028607
      dxz     :     0.000085
      dyz     :     0.005553
      dx2y2   :     0.012310
      dxy     :     0.006400
 13 O s       :     3.689932  s :     3.689932
      pz      :     1.491342  p :     4.735866
      px      :     1.576582
      py      :     1.667943
      dz2     :     0.009462  d :     0.029288
      dxz     :     0.006115
      dyz     :     0.009832
      dx2y2   :     0.001818
      dxy     :     0.002060
 14 H s       :     0.890290  s :     0.890290
      pz      :     0.012173  p :     0.066258
      px      :     0.009304
      py      :     0.044781
 15 H s       :     0.888273  s :     0.888273
      pz      :     0.016107  p :     0.069531
      px      :     0.040285
      py      :     0.013139

SPIN
  0 C s       :     0.000090  s :     0.000090
      pz      :    -0.007535  p :    -0.001836
      px      :     0.002129
      py      :     0.003570
      dz2     :     0.000041  d :     0.000697
      dxz     :     0.000032
      dyz     :    -0.000156
      dx2y2   :     0.000811
      dxy     :    -0.000030
  1 C s       :     0.006392  s :     0.006392
      pz      :    -0.001044  p :     0.027581
      px      :     0.027916
      py      :     0.000709
      dz2     :     0.000116  d :     0.001898
      dxz     :    -0.000037
      dyz     :    -0.000009
      dx2y2   :    -0.000006
      dxy     :     0.001834
  2 N s       :     0.042352  s :     0.042352
      pz      :     0.010097  p :     0.215860
      px      :     0.125126
      py      :     0.080637
      dz2     :     0.000834  d :     0.005616
      dxz     :    -0.000032
      dyz     :     0.000021
      dx2y2   :     0.000813
      dxy     :     0.003980
  3 C s       :     0.038429  s :     0.038429
      pz      :     0.012690  p :     0.233803
      px      :     0.217434
      py      :     0.003679
      dz2     :     0.000365  d :     0.016040
      dxz     :    -0.000596
      dyz     :     0.000454
      dx2y2   :     0.008567
      dxy     :     0.007250
  4 C s       :     0.006891  s :     0.006891
      pz      :    -0.007825  p :     0.031275
      px      :     0.020810
      py      :     0.018291
      dz2     :     0.000170  d :     0.002466
      dxz     :    -0.000020
      dyz     :     0.000174
      dx2y2   :     0.002272
      dxy     :    -0.000130
  5 C s       :     0.000995  s :     0.000995
      pz      :    -0.004385  p :     0.002594
      px      :     0.005561
      py      :     0.001417
      dz2     :     0.000088  d :     0.001425
      dxz     :    -0.000274
      dyz     :    -0.000154
      dx2y2   :    -0.000106
      dxy     :     0.001871
  6 N s       :     0.001223  s :     0.001223
      pz      :    -0.003539  p :    -0.001655
      px      :     0.001077
      py      :     0.000807
      dz2     :     0.000054  d :     0.000221
      dxz     :    -0.000016
      dyz     :    -0.000013
      dx2y2   :     0.000194
      dxy     :     0.000002
  7 H s       :     0.001619  s :     0.001619
      pz      :    -0.000164  p :    -0.000116
      px      :     0.000042
      py      :     0.000006
  8 H s       :     0.000053  s :     0.000053
      pz      :    -0.000154  p :    -0.000150
      px      :    -0.000021
      py      :     0.000025
  9 H s       :    -0.002219  s :    -0.002219
      pz      :    -0.000236  p :     0.001090
      px      :     0.001021
      py      :     0.000305
 10 S s       :     0.007656  s :     0.007656
      pz      :    -0.006599  p :    -0.019619
      px      :    -0.007349
      py      :    -0.005671
      dz2     :     0.017753  d :     0.054488
      dxz     :    -0.004776
      dyz     :    -0.000613
      dx2y2   :     0.039205
      dxy     :     0.002919
 11 O s       :     0.001146  s :     0.001146
      pz      :     0.009225  p :     0.117145
      px      :     0.106847
      py      :     0.001073
      dz2     :    -0.000002  d :    -0.000350
      dxz     :    -0.000277
      dyz     :    -0.000025
      dx2y2   :     0.000002
      dxy     :    -0.000049
 12 O s       :     0.000530  s :     0.000530
      pz      :    -0.000194  p :     0.087932
      px      :     0.059395
      py      :     0.028731
      dz2     :    -0.000038  d :    -0.000304
      dxz     :    -0.000002
      dyz     :    -0.000008
      dx2y2   :    -0.000056
      dxy     :    -0.000200
 13 O s       :     0.001121  s :     0.001121
      pz      :     0.008836  p :     0.115888
      px      :     0.105975
      py      :     0.001078
      dz2     :    -0.000002  d :    -0.000347
      dxz     :    -0.000268
      dyz     :    -0.000025
      dx2y2   :     0.000002
      dxy     :    -0.000054
 14 H s       :    -0.001649  s :    -0.001649
      pz      :    -0.000035  p :     0.000577
      px      :     0.000480
      py      :     0.000132
 15 H s       :     0.003172  s :     0.003172
      pz      :    -0.000198  p :    -0.000021
      px      :    -0.000010
      py      :     0.000187


                      *****************************
                      * MAYER POPULATION ANALYSIS *
                      *****************************

  NA   - Mulliken gross atomic population
  ZA   - Total nuclear charge
  QA   - Mulliken gross atomic charge
  VA   - Mayer's total valence
  BVA  - Mayer's bonded valence
  FA   - Mayer's free valence

  ATOM       NA         ZA         QA         VA         BVA        FA
  0 C      6.0816     6.0000    -0.0816     3.8316     3.8314     0.0002
  1 C      5.9118     6.0000     0.0882     4.0099     4.0084     0.0016
  2 N      7.0340     7.0000    -0.0340     3.4419     3.3674     0.0745
  3 C      6.1180     6.0000    -0.1180     4.0946     3.9866     0.1080
  4 C      5.9939     6.0000     0.0061     3.8037     3.8007     0.0030
  5 C      5.9197     6.0000     0.0803     4.0793     4.0792     0.0001
  6 N      7.1026     7.0000    -0.1026     3.2840     3.2839     0.0000
  7 H      0.8558     1.0000     0.1442     0.9944     0.9944     0.0000
  8 H      0.8508     1.0000     0.1492     0.9932     0.9932     0.0000
  9 H      0.9441     1.0000     0.0559     1.0272     1.0271     0.0000
 10 S     14.9910    16.0000     1.0090     5.5263     5.5177     0.0086
 11 O      8.4225     8.0000    -0.4225     1.9980     1.9834     0.0146
 12 O      8.4488     8.0000    -0.4488     2.0014     1.9932     0.0082
 13 O      8.4226     8.0000    -0.4226     1.9981     1.9837     0.0143
 14 H      0.9358     1.0000     0.0642     0.9881     0.9881     0.0000
 15 H      0.9669     1.0000     0.0331     0.9983     0.9983     0.0000

  Mayer bond orders larger than 0.100000
B(  0-C ,  1-C ) :   1.5041 B(  0-C ,  5-C ) :   1.2714 B(  0-C , 15-H ) :   0.9743 
B(  1-C ,  2-N ) :   1.3631 B(  1-C , 14-H ) :   0.9747 B(  2-N ,  3-C ) :   1.7931 
B(  3-C ,  4-C ) :   1.3874 B(  3-C , 10-S ) :   0.4693 B(  4-C ,  5-C ) :   1.3021 
B(  4-C ,  9-H ) :   0.9667 B(  5-C ,  6-N ) :   1.3185 B(  6-N ,  7-H ) :   0.9468 
B(  6-N ,  8-H ) :   0.9445 B( 10-S , 11-O ) :   1.6799 B( 10-S , 12-O ) :   1.6679 
B( 10-S , 13-O ) :   1.6807 B( 11-O , 12-O ) :   0.1029 B( 11-O , 13-O ) :   0.1102 
B( 12-O , 13-O ) :   0.1028 

-------
TIMINGS
-------

Total SCF time: 0 days 0 hours 0 min 52 sec 

Total time                  ....      52.017 sec
Sum of individual times     ....      51.804 sec  ( 99.6%)

Fock matrix formation       ....      50.633 sec  ( 97.3%)
  XC integration            ....       4.429 sec  (  8.7% of F)
    Basis function eval.    ....       1.030 sec  ( 23.3% of XC)
    Density eval.           ....       0.937 sec  ( 21.2% of XC)
    XC-Functional eval.     ....       1.003 sec  ( 22.6% of XC)
    XC-Potential eval.      ....       1.355 sec  ( 30.6% of XC)
Diagonalization             ....       0.068 sec  (  0.1%)
Density matrix formation    ....       0.010 sec  (  0.0%)
Population analysis         ....       0.007 sec  (  0.0%)
Initial guess               ....       0.007 sec  (  0.0%)
Orbital Transformation      ....       0.000 sec  (  0.0%)
Orbital Orthonormalization  ....       0.004 sec  (  0.0%)
DIIS solution               ....       0.018 sec  (  0.0%)
Grid generation             ....       1.060 sec  (  2.0%)


-------------------------------------------------------------------------------
                          DFT DISPERSION CORRECTION                            
                                                                               
                              DFTD3 V3.1  Rev 1                                
                              USING zero damping                               
-------------------------------------------------------------------------------
The omegaB97X-D3 functional is recognized. Fit by Chai et al.
Active option DFTDOPT                   ...         3   

molecular C6(AA) [au] = 4078.547903 


            DFT-D V3
 parameters
 s6 scaling factor         :     1.0000 
 rs6 scaling factor        :     1.2810 
 s8 scaling factor         :     1.0000 
 rs8 scaling factor        :     1.0940 
 Damping factor alpha6     :    14.0000 
 Damping factor alpha8     :    16.0000 
 ad hoc parameters k1-k3   :    16.0000     1.3333    -4.0000 

 Edisp/kcal,au: -3.288062695219  -0.005239860879 
 E6   /kcal   :  -1.377232851 
 E8   /kcal   :  -1.910829844 
 % E8         :  58.114154774 

-------------------------   ----------------
Dispersion correction           -0.005239861
-------------------------   ----------------


-------------------------   --------------------
FINAL SINGLE POINT ENERGY      -926.073781182961
-------------------------   --------------------

                                *** OPTIMIZATION RUN DONE ***

                            ***************************************
                            *     ORCA property calculations      *
                            ***************************************

                                    ---------------------
                                    Active property flags
                                    ---------------------
   (+) Dipole Moment


------------------------------------------------------------------------------
                       ORCA ELECTRIC PROPERTIES CALCULATION
------------------------------------------------------------------------------

Dipole Moment Calculation                       ... on
Quadrupole Moment Calculation                   ... off
Polarizability Calculation                      ... off
GBWName                                         ... 051538824.gbw
Electron density file                           ... 051538824.scfp
The origin for moment calculation is the CENTER OF MASS  = ( 0.073444,  0.010203 -0.003084)

-------------
DIPOLE MOMENT
-------------
                                X             Y             Z
Electronic contribution:      9.01733      -1.01171      -0.01107
Nuclear contribution   :    -12.82172       1.42779       0.03086
                        -----------------------------------------
Total Dipole Moment    :     -3.80439       0.41608       0.01979
                        -----------------------------------------
Magnitude (a.u.)       :      3.82713
Magnitude (Debye)      :      9.72779



--------------------
Rotational spectrum 
--------------------
 
Rotational constants in cm-1:     0.068674     0.021405     0.018068 
Rotational constants in MHz :  2058.796046   641.698523   541.652829 

 Dipole components along the rotational axes: 
x,y,z [a.u.] :    -3.799285     0.460470     0.017970 
x,y,z [Debye]:    -9.657014     1.170422     0.045676 

 

Timings for individual modules:

Sum of individual times         ...     5737.696 sec (=  95.628 min)
GTO integral calculation        ...       11.815 sec (=   0.197 min)   0.2 %
SCF iterations                  ...     5053.684 sec (=  84.228 min)  88.1 %
SCF Gradient evaluation         ...      663.222 sec (=  11.054 min)  11.6 %
Geometry relaxation             ...        8.975 sec (=   0.150 min)   0.2 %
                             ****ORCA TERMINATED NORMALLY****
TOTAL RUN TIME: 0 days 1 hours 35 minutes 39 seconds 616 msec
