
                                 *****************
                                 * O   R   C   A *
                                 *****************

           --- An Ab Initio, DFT and Semiempirical electronic structure package ---

                  #######################################################
                  #                        -***-                        #
                  #          Department of theory and spectroscopy      #
                  #               Directorship: Frank Neese             #
                  #        Max Planck Institute fuer Kohlenforschung    #
                  #                Kaiser Wilhelm Platz 1               #
                  #                 D-45470 Muelheim/Ruhr               #
                  #                      Germany                        #
                  #                                                     #
                  #                  All rights reserved                #
                  #                        -***-                        #
                  #######################################################


                         Program Version 4.2.0 -  RELEASE  -


 With contributions from (in alphabetic order):
   Daniel Aravena         : Magnetic Suceptibility
   Michael Atanasov       : Ab Initio Ligand Field Theory (pilot matlab implementation)
   Alexander A. Auer      : GIAO ZORA, VPT2
   Ute Becker             : Parallelization
   Giovanni Bistoni       : ED, misc. LED, open-shell LED, HFLED
   Martin Brehm           : Molecular dynamics
   Dmytro Bykov           : SCF Hessian
   Vijay G. Chilkuri      : MRCI spin determinant printing, contributions to CSF-ICE
   Dipayan Datta          : RHF DLPNO-CCSD density
   Achintya Kumar Dutta   : EOM-CC, STEOM-CC
   Dmitry Ganyushin       : Spin-Orbit,Spin-Spin,Magnetic field MRCI
   Miquel Garcia          : C-PCM Hessian, Gaussian charge scheme
   Yang Guo               : DLPNO-NEVPT2, CIM, IAO-localization
   Andreas Hansen         : Spin unrestricted coupled pair/coupled cluster methods
   Benjamin Helmich-Paris : CASSCF linear response (MC-RPA)
   Lee Huntington         : MR-EOM, pCC
   Robert Izsak           : Overlap fitted RIJCOSX, COSX-SCS-MP3, EOM
   Christian Kollmar      : KDIIS, OOCD, Brueckner-CCSD(T), CCSD density
   Simone Kossmann        : Meta GGA functionals, TD-DFT gradient, OOMP2, MP2 Hessian
   Martin Krupicka        : AUTO-CI
   Lucas Lang             : DCDCAS
   Dagmar Lenk            : GEPOL surface, SMD
   Dimitrios Liakos       : Extrapolation schemes; Compound Job, initial MDCI parallelization
   Dimitrios Manganas     : Further ROCIS development; embedding schemes
   Dimitrios Pantazis     : SARC Basis sets
   Taras Petrenko         : DFT Hessian,TD-DFT gradient, ASA, ECA, R-Raman, ABS, FL, XAS/XES, NRVS
   Peter Pinski           : DLPNO-MP2, DLPNO-MP2 Gradient
   Christoph Reimann      : Effective Core Potentials
   Marius Retegan         : Local ZFS, SOC
   Christoph Riplinger    : Optimizer, TS searches, QM/MM, DLPNO-CCSD(T), (RO)-DLPNO pert. Triples
   Tobias Risthaus        : Range-separated hybrids, TD-DFT gradient, RPA, STAB
   Michael Roemelt        : Original ROCIS implementation
   Masaaki Saitow         : Open-shell DLPNO-CCSD energy and density
   Barbara Sandhoefer     : DKH picture change effects
   Avijit Sen             : IP-ROCIS
   Kantharuban Sivalingam : CASSCF convergence, NEVPT2, FIC-MRCI
   Bernardo de Souza      : ESD, SOC TD-DFT
   Georgi Stoychev        : AutoAux, RI-MP2 NMR
   Willem Van den Heuvel  : Paramagnetic NMR
   Boris Wezisla          : Elementary symmetry handling
   Frank Wennmohs         : Technical directorship


 We gratefully acknowledge several colleagues who have allowed us to
 interface, adapt or use parts of their codes:
   Stefan Grimme, W. Hujo, H. Kruse,             : VdW corrections, initial TS optimization,
                  C. Bannwarth                     DFT functionals, gCP, sTDA/sTD-DF
   Ed Valeev, F. Pavosevic, A. Kumar             : LibInt (2-el integral package), F12 methods
   Garnet Chan, S. Sharma, J. Yang, R. Olivares  : DMRG
   Ulf Ekstrom                                   : XCFun DFT Library
   Mihaly Kallay                                 : mrcc  (arbitrary order and MRCC methods)
   Andreas Klamt, Michael Diedenhofen            : otool_cosmo (COSMO solvation model)
   Jiri Pittner, Ondrej Demel                    : Mk-CCSD
   Frank Weinhold                                : gennbo (NPA and NBO analysis)
   Christopher J. Cramer and Donald G. Truhlar   : smd solvation model
   Lars Goerigk                                  : TD-DFT with DH, B97 family of functionals
   V. Asgeirsson, H. Jonsson                     : NEB implementation
   FAccTs GmbH                                   : IRC, NEB, NEB-TS, Multilevel, MM, QM/MM, CI optimization
   S Lehtola, MJT Oliveira, MAL Marques          : LibXC Library


 Your calculation uses the libint2 library for the computation of 2-el integrals
 For citations please refer to: http://libint.valeyev.net

 Your ORCA version has been built with support for libXC version: 4.2.3
 For citations please refer to: https://tddft.org/programs/libxc/

 This ORCA versions uses:
   CBLAS   interface :  Fast vector & matrix operations
   LAPACKE interface :  Fast linear algebra routines
   SCALAPACK package :  Parallel linear algebra routines


Your calculation utilizes the atom-pairwise dispersion correction
with the zero-damping scheme (D30)
Cite in your paper:
S.Grimme, J.Antony, S.Ehrlich and H.Krieg, J.Chem.Phys., 132, (2010), 154104 
   

XCFun DFT library Copyright 2009-2010 Ulf Ekstrom and contributors.
See http://admol.org/xcfun for more information. This is free soft-
ware; see the source code for copying conditions. There is ABSOLUTELY
NO WARRANTY; not even for MERCHANTABILITY or FITNESS FOR A PARTICULAR
PURPOSE. For details see the documentation. Scientific users of this 
library should cite U. Ekstrom, L. Visscher, R. Bast, A. J. Thorvald-
sen and K. Ruud; J.Chem.Theor.Comp. 2010, DOI: 10.1021/ct100117s
XCFun Version 0.99 
----- Orbital basis set information -----
Your calculation utilizes the basis: def2-SVP
   F. Weigend and R. Ahlrichs, Phys. Chem. Chem. Phys. 7, 3297 (2005).

================================================================================
                                        WARNINGS
                       Please study these warnings very carefully!
================================================================================


WARNING: Geometry Optimization
  ===> : Switching off AutoStart
         For restart on a previous wavefunction, please use MOREAD

INFO   : the flag for use of LIBINT has been found!

================================================================================
                                       INPUT FILE
================================================================================
NAME = 043651898.inp
|  1> # ORCA input file
|  2> # -52.24022524
|  3> ! wB97X-D3 def2-SVP Opt
|  4> * xyz 0 1
|  5>    C       -5.05580        -1.35530         0.20080
|  6>    H       -5.94290        -1.51270         0.81210
|  7>    O       -4.32020        -0.34640         0.85190
|  8>    C       -3.13850         0.04870         0.31470
|  9>    C       -2.59020        -0.44750        -0.86340
| 10>    C       -1.37270         0.03130        -1.31410
| 11>    C       -0.68700         1.01120        -0.61390
| 12>    C       -1.23860         1.50600         0.56490
| 13>    C       -2.44660         1.03380         1.02450
| 14>    H       -2.88210         1.40790         1.93720
| 15>    H       -0.70960         2.26360         1.12430
| 16>    C        0.64890         1.50470        -1.08490
| 17>    H        0.71500         2.59330        -1.03820
| 18>    H        0.86210         1.16500        -2.10200
| 19>    O        1.73740         1.07880        -0.21800
| 20>    C        2.06660        -0.22080        -0.23060
| 21>    F        1.06970        -1.02680         0.24130
| 22>    F        2.30290        -0.67920        -1.49170
| 23>    C        3.34590        -0.44530         0.65430
| 24>    O        3.89150        -1.49910         0.71100
| 25>    O        3.72350         0.63920         1.30790
| 26>    H        3.15030         1.40170         1.11010
| 27>    H       -0.95300        -0.37190        -2.22420
| 28>    H       -3.09420        -1.21060        -1.43440
| 29>    H       -4.48840        -2.28890         0.13930
| 30>    H       -5.35990        -1.04550        -0.80410
| 31> *
| 32> 
| 33>                          ****END OF INPUT****
================================================================================

                       *****************************
                       * Geometry Optimization Run *
                       *****************************

Geometry optimization settings:
Update method            Update   .... BFGS
Choice of coordinates    CoordSys .... Z-matrix Internals
Initial Hessian          InHess   .... Almoef's Model

Convergence Tolerances:
Energy Change            TolE     ....  5.0000e-06 Eh
Max. Gradient            TolMAXG  ....  3.0000e-04 Eh/bohr
RMS Gradient             TolRMSG  ....  1.0000e-04 Eh/bohr
Max. Displacement        TolMAXD  ....  4.0000e-03 bohr
RMS Displacement         TolRMSD  ....  2.0000e-03 bohr
Strict Convergence                ....  False
------------------------------------------------------------------------------
                        ORCA OPTIMIZATION COORDINATE SETUP
------------------------------------------------------------------------------

The optimization will be done in new redundant internal coordinates
Making redundant internal coordinates   ...  (new redundants) done
Evaluating the initial hessian          ...  (Almloef) done
Evaluating the coordinates              ...  done
Calculating the B-matrix                .... done
Calculating the G-matrix                .... done
Diagonalizing the G-matrix              .... done
Small eigenvalue found = 6.027e-03
Small eigenvalue found = 1.133e-02
Small eigenvalue found = 1.673e-02
The first mode is                       ....   45
The number of degrees of freedom        ....   72

    -----------------------------------------------------------------
                    Redundant Internal Coordinates


    -----------------------------------------------------------------
         Definition                    Initial Value    Approx d2E/dq
    -----------------------------------------------------------------
      1. B(H   1,C   0)                  1.0888         0.361738   
      2. B(O   2,C   0)                  1.4082         0.523481   
      3. B(C   3,O   2)                  1.3569         0.632017   
      4. B(C   4,C   3)                  1.3910         0.622599   
      5. B(C   5,C   4)                  1.3837         0.639374   
      6. B(C   6,C   5)                  1.3859         0.634321   
      7. B(C   7,C   6)                  1.3924         0.619409   
      8. B(C   8,C   7)                  1.3760         0.657689   
      9. B(C   8,C   3)                  1.3975         0.607851   
     10. B(H   9,C   8)                  1.0783         0.375978   
     11. B(H  10,C   7)                  1.0802         0.373367   
     12. B(C  11,C   6)                  1.5000         0.417094   
     13. B(H  12,C  11)                  1.0916         0.357984   
     14. B(H  13,C  11)                  1.0933         0.355738   
     15. B(O  14,C  11)                  1.4552         0.440333   
     16. B(C  15,O  14)                  1.3407         0.670689   
     17. B(F  16,C  15)                  1.3661         0.567744   
     18. B(F  17,C  15)                  1.3625         0.575280   
     19. B(C  18,C  15)                  1.5716         0.320584   
     20. B(O  19,C  18)                  1.1880         1.175232   
     21. B(O  20,C  18)                  1.3213         0.720166   
     22. B(H  21,O  20)                  0.9742         0.493506   
     23. B(H  22,C   5)                  1.0803         0.373194   
     24. B(H  23,C   4)                  1.0781         0.376141   
     25. B(H  24,C   0)                  1.0942         0.354551   
     26. B(H  25,C   0)                  1.0947         0.353990   
     27. A(H  24,C   0,H  25)          109.5070         0.289354   
     28. A(O   2,C   0,H  25)          111.5193         0.339928   
     29. A(H   1,C   0,H  25)          109.2682         0.290266   
     30. A(H   1,C   0,H  24)          109.3115         0.290338   
     31. A(H   1,C   0,O   2)          105.6403         0.341161   
     32. A(O   2,C   0,H  24)          111.4940         0.340018   
     33. A(C   0,O   2,C   3)          118.7186         0.417079   
     34. A(C   4,C   3,C   8)          119.1099         0.432849   
     35. A(O   2,C   3,C   4)          125.0820         0.433042   
     36. A(O   2,C   3,C   8)          115.8080         0.431181   
     37. A(C   3,C   4,H  23)          121.1172         0.355778   
     38. A(C   5,C   4,H  23)          118.9290         0.357388   
     39. A(C   3,C   4,C   5)          119.9517         0.436807   
     40. A(C   6,C   5,H  22)          119.8230         0.356430   
     41. A(C   4,C   5,C   6)          121.0265         0.438278   
     42. A(C   4,C   5,H  22)          119.1500         0.356910   
     43. A(C   5,C   6,C  11)          120.9723         0.406089   
     44. A(C   5,C   6,C   7)          118.8815         0.435779   
     45. A(C   7,C   6,C  11)          120.1155         0.404386   
     46. A(C   8,C   7,H  10)          119.8447         0.358657   
     47. A(C   6,C   7,H  10)          119.5832         0.355021   
     48. A(C   6,C   7,C   8)          120.5714         0.438630   
     49. A(C   7,C   8,H   9)          121.2139         0.359082   
     50. A(C   3,C   8,H   9)          118.3285         0.354308   
     51. A(C   3,C   8,C   7)          120.4573         0.437143   
     52. A(H  13,C  11,O  14)          108.5050         0.330564   
     53. A(H  12,C  11,O  14)          102.7726         0.330908   
     54. A(C   6,C  11,O  14)          112.5081         0.378542   
     55. A(H  12,C  11,H  13)          109.7454         0.290015   
     56. A(C   6,C  11,H  13)          111.3188         0.329597   
     57. A(C   6,C  11,H  12)          111.6286         0.329940   
     58. A(C  11,O  14,C  15)          117.5005         0.408753   
     59. A(F  17,C  15,C  18)          109.3851         0.377196   
     60. A(F  16,C  15,C  18)          108.3751         0.376338   
     61. A(O  14,C  15,C  18)          109.4535         0.389057   
     62. A(F  16,C  15,F  17)          104.3473         0.412480   
     63. A(O  14,C  15,F  17)          112.1737         0.426800   
     64. A(O  14,C  15,F  16)          112.9229         0.425793   
     65. A(C  15,C  18,O  20)          113.1964         0.393930   
     66. A(C  15,C  18,O  19)          121.8303         0.429675   
     67. A(O  19,C  18,O  20)          124.9727         0.494796   
     68. A(C  18,O  20,H  21)          111.9517         0.376392   
     69. D(C   3,O   2,C   0,H  24)     60.5283         0.021738   
     70. D(C   3,O   2,C   0,H  25)    -62.2263         0.021738   
     71. D(C   3,O   2,C   0,H   1)    179.1702         0.021738   
     72. D(C   4,C   3,O   2,C   0)      1.3842         0.029390   
     73. D(C   8,C   3,O   2,C   0)   -178.7575         0.029390   
     74. D(C   5,C   4,C   3,C   8)      0.2635         0.026837   
     75. D(C   5,C   4,C   3,O   2)   -179.8826         0.026837   
     76. D(H  23,C   4,C   3,C   8)    179.7385         0.026837   
     77. D(H  23,C   4,C   3,O   2)     -0.4075         0.026837   
     78. D(H  22,C   5,C   4,H  23)     -0.2349         0.028399   
     79. D(H  22,C   5,C   4,C   3)    179.2516         0.028399   
     80. D(C   6,C   5,C   4,H  23)   -179.9608         0.028399   
     81. D(C   6,C   5,C   4,C   3)     -0.4743         0.028399   
     82. D(C   7,C   6,C   5,H  22)   -179.2647         0.027923   
     83. D(C   7,C   6,C   5,C   4)      0.4593         0.027923   
     84. D(C  11,C   6,C   5,H  22)     -1.2791         0.027923   
     85. D(C  11,C   6,C   5,C   4)    178.4449         0.027923   
     86. D(H  10,C   7,C   6,C  11)      1.4568         0.026546   
     87. D(H  10,C   7,C   6,C   5)    179.4601         0.026546   
     88. D(C   8,C   7,C   6,C  11)   -178.2447         0.026546   
     89. D(C   8,C   7,C   6,C   5)     -0.2413         0.026546   
     90. D(H   9,C   8,C   7,H  10)      0.1509         0.030168   
     91. D(H   9,C   8,C   7,C   6)    179.8516         0.030168   
     92. D(C   3,C   8,C   7,H  10)   -179.6598         0.030168   
     93. D(C   3,C   8,C   7,C   6)      0.0409         0.030168   
     94. D(H   9,C   8,C   3,C   4)   -179.8664         0.025508   
     95. D(H   9,C   8,C   3,O   2)      0.2664         0.025508   
     96. D(C   7,C   8,C   3,C   4)     -0.0503         0.025508   
     97. D(C   7,C   8,C   3,O   2)   -179.9176         0.025508   
     98. D(H  12,C  11,C   6,C   7)    -46.6919         0.012869   
     99. D(H  12,C  11,C   6,C   5)    135.3472         0.012869   
    100. D(O  14,C  11,C   6,C   7)     68.2527         0.012869   
    101. D(O  14,C  11,C   6,C   5)   -109.7082         0.012869   
    102. D(H  13,C  11,C   6,C   7)   -169.7074         0.012869   
    103. D(H  13,C  11,C   6,C   5)     12.3317         0.012869   
    104. D(C  15,O  14,C  11,H  13)    -53.1580         0.015269   
    105. D(C  15,O  14,C  11,H  12)   -169.3367         0.015269   
    106. D(C  15,O  14,C  11,C   6)     70.4619         0.015269   
    107. D(C  18,C  15,O  14,C  11)    174.3322         0.036918   
    108. D(F  17,C  15,O  14,C  11)     52.7262         0.036918   
    109. D(F  16,C  15,O  14,C  11)    -64.8470         0.036918   
    110. D(O  20,C  18,C  15,F  16)   -117.1293         0.007914   
    111. D(O  20,C  18,C  15,O  14)      6.4158         0.007914   
    112. D(O  19,C  18,C  15,F  17)    -50.5760         0.007914   
    113. D(O  19,C  18,C  15,F  16)     62.6079         0.007914   
    114. D(O  20,C  18,C  15,F  17)    129.6868         0.007914   
    115. D(O  19,C  18,C  15,O  14)   -173.8470         0.007914   
    116. D(H  21,O  20,C  18,O  19)    178.9506         0.039057   
    117. D(H  21,O  20,C  18,C  15)     -1.3219         0.039057   
    -----------------------------------------------------------------

Number of atoms                         .... 26
Number of degrees of freedom            .... 117

         *************************************************************
         *                GEOMETRY OPTIMIZATION CYCLE   1            *
         *************************************************************
---------------------------------
CARTESIAN COORDINATES (ANGSTROEM)
---------------------------------
  C     -5.055800   -1.355300    0.200800
  H     -5.942900   -1.512700    0.812100
  O     -4.320200   -0.346400    0.851900
  C     -3.138500    0.048700    0.314700
  C     -2.590200   -0.447500   -0.863400
  C     -1.372700    0.031300   -1.314100
  C     -0.687000    1.011200   -0.613900
  C     -1.238600    1.506000    0.564900
  C     -2.446600    1.033800    1.024500
  H     -2.882100    1.407900    1.937200
  H     -0.709600    2.263600    1.124300
  C      0.648900    1.504700   -1.084900
  H      0.715000    2.593300   -1.038200
  H      0.862100    1.165000   -2.102000
  O      1.737400    1.078800   -0.218000
  C      2.066600   -0.220800   -0.230600
  F      1.069700   -1.026800    0.241300
  F      2.302900   -0.679200   -1.491700
  C      3.345900   -0.445300    0.654300
  O      3.891500   -1.499100    0.711000
  O      3.723500    0.639200    1.307900
  H      3.150300    1.401700    1.110100
  H     -0.953000   -0.371900   -2.224200
  H     -3.094200   -1.210600   -1.434400
  H     -4.488400   -2.288900    0.139300
  H     -5.359900   -1.045500   -0.804100

----------------------------
CARTESIAN COORDINATES (A.U.)
----------------------------
  NO LB      ZA    FRAG     MASS         X           Y           Z
   0 C     6.0000    0    12.011   -9.554077   -2.561146    0.379457
   1 H     1.0000    0     1.008  -11.230453   -2.858589    1.534647
   2 O     8.0000    0    15.999   -8.163995   -0.654601    1.609858
   3 C     6.0000    0    12.011   -5.930905    0.092030    0.594697
   4 C     6.0000    0    12.011   -4.894769   -0.845652   -1.631590
   5 C     6.0000    0    12.011   -2.594027    0.059148   -2.483289
   6 C     6.0000    0    12.011   -1.298242    1.910891   -1.160103
   7 C     6.0000    0    12.011   -2.340615    2.845928    1.067506
   8 C     6.0000    0    12.011   -4.623404    1.953599    1.936024
   9 H     1.0000    0     1.008   -5.446380    2.660545    3.660777
  10 H     1.0000    0     1.008   -1.340950    4.277584    2.124619
  11 C     6.0000    0    12.011    1.226243    2.843471   -2.050164
  12 H     1.0000    0     1.008    1.351154    4.900627   -1.961914
  13 H     1.0000    0     1.008    1.629133    2.201531   -3.972204
  14 O     8.0000    0    15.999    3.283210    2.038637   -0.411960
  15 C     6.0000    0    12.011    3.905308   -0.417252   -0.435771
  16 F     9.0000    0    18.998    2.021440   -1.940371    0.455991
  17 F     9.0000    0    18.998    4.351850   -1.283502   -2.818904
  18 C     6.0000    0    12.011    6.322835   -0.841495    1.236448
  19 O     8.0000    0    15.999    7.353869   -2.832888    1.343595
  20 O     8.0000    0    15.999    7.036395    1.207913    2.471573
  21 H     1.0000    0     1.008    5.953204    2.648829    2.097785
  22 H     1.0000    0     1.008   -1.800909   -0.702789   -4.203129
  23 H     1.0000    0     1.008   -5.847191   -2.287702   -2.710623
  24 H     1.0000    0     1.008   -8.481847   -4.325394    0.263239
  25 H     1.0000    0     1.008  -10.128743   -1.975709   -1.519529

--------------------------------
INTERNAL COORDINATES (ANGSTROEM)
--------------------------------
 C      0   0   0     0.000000000000     0.00000000     0.00000000
 H      1   0   0     1.088764832276     0.00000000     0.00000000
 O      1   2   0     1.408161134246   105.64028141     0.00000000
 C      3   1   2     1.356872411098   118.71857735   179.17022113
 C      4   3   1     1.390959000115   125.08198399     1.38423161
 C      5   4   3     1.383721857889   119.95168803   180.11742909
 C      6   5   4     1.385881863652   121.02649715   359.52574729
 C      7   6   5     1.392357367920   118.88154367     0.45930918
 C      8   7   6     1.376033793190   120.57139660   359.75865110
 H      9   8   7     1.078254306738   121.21385121   179.85157978
 H      8   7   6     1.080151433828   119.58324520   179.46014178
 C      7   6   5     1.500004019995   120.97226520   178.44492096
 H     12   7   6     1.091604351402   111.62861369   135.34723414
 H     12   7   6     1.093317309842   111.31879335    12.33173114
 O     12   7   6     1.455245226757   112.50812575   250.29180257
 C     15  12   7     1.340705620187   117.50045522    70.46187811
 F     16  15  12     1.366065598718   112.92291987   295.15299327
 F     16  15  12     1.362476223646   112.17366039    52.72623086
 C     16  15  12     1.571641419027   109.45352831   174.33218867
 O     19  16  15     1.188018808774   121.83026175   186.15297040
 O     19  16  15     1.321330757229   113.19643977     6.41576770
 H     21  19  16     0.974212158618   111.95171853   358.67814805
 H      6   5   4     1.080277899431   119.14995579   179.25158550
 H      5   4   3     1.078136637908   121.11722850   359.59248319
 H      1   2   3     1.094227567739   109.31153605   120.08483416
 H      1   2   3     1.094658330257   109.26818307   239.90799010

---------------------------
INTERNAL COORDINATES (A.U.)
---------------------------
 C      0   0   0     0.000000000000     0.00000000     0.00000000
 H      1   0   0     2.057467357245     0.00000000     0.00000000
 O      1   2   0     2.661038896156   105.64028141     0.00000000
 C      3   1   2     2.564117255649   118.71857735   179.17022113
 C      4   3   1     2.628531573730   125.08198399     1.38423161
 C      5   4   3     2.614855356931   119.95168803   180.11742909
 C      6   5   4     2.618937176271   121.02649715   359.52574729
 C      7   6   5     2.631174105915   118.88154367     0.45930918
 C      8   7   6     2.600327020149   120.57139660   359.75865110
 H      9   8   7     2.037605342457   121.21385121   179.85157978
 H      8   7   6     2.041190393097   119.58324520   179.46014178
 C      7   6   5     2.834596797571   120.97226520   178.44492096
 H     12   7   6     2.062833270747   111.62861369   135.34723414
 H     12   7   6     2.066070293077   111.31879335    12.33173114
 O     12   7   6     2.750014936267   112.50812575   250.29180257
 C     15  12   7     2.533566448362   117.50045522    70.46187811
 F     16  15  12     2.581489862548   112.92291987   295.15299327
 F     16  15  12     2.574706926670   112.17366039    52.72623086
 C     16  15  12     2.969971862688   109.45352831   174.33218867
 O     19  16  15     2.245030190530   121.83026175   186.15297040
 O     19  16  15     2.496953263490   113.19643977     6.41576770
 H     21  19  16     1.840994176125   111.95171853   358.67814805
 H      6   5   4     2.041429378453   119.14995579   179.25158550
 H      5   4   3     2.037382980593   121.11722850   359.59248319
 H      1   2   3     2.067790431213   109.31153605   120.08483416
 H      1   2   3     2.068604454400   109.26818307   239.90799010

---------------------
BASIS SET INFORMATION
---------------------
There are 4 groups of distinct atoms

 Group   1 Type C   : 7s4p1d contracted to 3s2p1d pattern {511/31/1}
 Group   2 Type H   : 4s1p contracted to 2s1p pattern {31/1}
 Group   3 Type O   : 7s4p1d contracted to 3s2p1d pattern {511/31/1}
 Group   4 Type F   : 7s4p1d contracted to 3s2p1d pattern {511/31/1}

Atom   0C    basis set group =>   1
Atom   1H    basis set group =>   2
Atom   2O    basis set group =>   3
Atom   3C    basis set group =>   1
Atom   4C    basis set group =>   1
Atom   5C    basis set group =>   1
Atom   6C    basis set group =>   1
Atom   7C    basis set group =>   1
Atom   8C    basis set group =>   1
Atom   9H    basis set group =>   2
Atom  10H    basis set group =>   2
Atom  11C    basis set group =>   1
Atom  12H    basis set group =>   2
Atom  13H    basis set group =>   2
Atom  14O    basis set group =>   3
Atom  15C    basis set group =>   1
Atom  16F    basis set group =>   4
Atom  17F    basis set group =>   4
Atom  18C    basis set group =>   1
Atom  19O    basis set group =>   3
Atom  20O    basis set group =>   3
Atom  21H    basis set group =>   2
Atom  22H    basis set group =>   2
Atom  23H    basis set group =>   2
Atom  24H    basis set group =>   2
Atom  25H    basis set group =>   2
------------------------------------------------------------------------------
                           ORCA GTO INTEGRAL CALCULATION
------------------------------------------------------------------------------

                         BASIS SET STATISTICS AND STARTUP INFO

 # of primitive gaussian shells          ...  242
 # of primitive gaussian functions       ...  454
 # of contracted shells                  ...  126
 # of contracted basis functions         ...  274
 Highest angular momentum                ...    2
 Maximum contraction depth               ...    5
 Integral package used                   ... LIBINT
 Integral threshhold            Thresh   ...  2.500e-11
 Primitive cut-off              TCut     ...  2.500e-12


------------------------------ INTEGRAL EVALUATION ----------------------------


 * One electron integrals 
 Pre-screening matrix                    ... done
 Shell pair data                         ... done (   0.002 sec)

-------------------------------------------------------------------------------
                                 ORCA SCF
-------------------------------------------------------------------------------

------------
SCF SETTINGS
------------
Hamiltonian:
 Density Functional     Method          .... DFT(GTOs)
 Exchange Functional    Exchange        .... WB97X-D3
 Correlation Functional Correlation     .... WB97X-D3
 Gradients option       PostSCFGGA      .... off
 Hybrid DFT is turned on
   Fraction HF Exchange ScalHFX         ....  0.195728
   Scaling of DF-GGA-X  ScalDFX         ....  0.000000
   Scaling of DF-GGA-C  ScalDFC         ....  1.000000
   Scaling of DF-LDA-C  ScalLDAC        ....  1.000000
   Perturbative correction              ....  0.000000
   Density functional embedding theory  .... OFF
 Long-range corrected/Screened/Range-Separated Hybrid DFT is turned on
   Amount of maximum screened exact exchange              ....  0.804272
   Range separation parameter mu (erf(mu*r12)/r12)        ....  0.250000


General Settings:
 Integral files         IntName         .... 043651898
 Hartree-Fock type      HFTyp           .... RHF
 Total Charge           Charge          ....    0
 Multiplicity           Mult            ....    1
 Number of Electrons    NEL             ....  120
 Basis Dimension        Dim             ....  274
 Nuclear Repulsion      ENuc            ....   1140.9921238698 Eh

Convergence Acceleration:
 DIIS                   CNVDIIS         .... on
   Start iteration      DIISMaxIt       ....    12
   Startup error        DIISStart       ....  0.200000
   # of expansion vecs  DIISMaxEq       ....     5
   Bias factor          DIISBfac        ....   1.050
   Max. coefficient     DIISMaxC        ....  10.000
 Newton-Raphson         CNVNR           .... off
 SOSCF                  CNVSOSCF        .... on
   Start iteration      SOSCFMaxIt      ....   150
   Startup grad/error   SOSCFStart      ....  0.003300
 Level Shifting         CNVShift        .... on
   Level shift para.    LevelShift      ....    0.2500
   Turn off err/grad.   ShiftErr        ....    0.0010
 Zerner damping         CNVZerner       .... off
 Static damping         CNVDamp         .... on
   Fraction old density DampFac         ....    0.7000
   Max. Damping (<1)    DampMax         ....    0.9800
   Min. Damping (>=0)   DampMin         ....    0.0000
   Turn off err/grad.   DampErr         ....    0.1000
 Fernandez-Rico         CNVRico         .... off

SCF Procedure:
 Maximum # iterations   MaxIter         ....   125
 SCF integral mode      SCFMode         .... Direct
   Integral package                     .... LIBINT
 Reset frequency        DirectResetFreq ....    20
 Integral Threshold     Thresh          ....  2.500e-11 Eh
 Primitive CutOff       TCut            ....  2.500e-12 Eh

Convergence Tolerance:
 Convergence Check Mode ConvCheckMode   .... Total+1el-Energy
 Convergence forced     ConvForced      .... 0
 Energy Change          TolE            ....  1.000e-08 Eh
 1-El. energy change                    ....  1.000e-05 Eh
 Orbital Gradient       TolG            ....  1.000e-05
 Orbital Rotation angle TolX            ....  1.000e-05
 DIIS Error             TolErr          ....  5.000e-07


Diagonalization of the overlap matrix:
Smallest eigenvalue                        ... 2.376e-04
Time for diagonalization                   ...    0.062 sec
Threshold for overlap eigenvalues          ... 1.000e-08
Number of eigenvalues below threshold      ... 0
Time for construction of square roots      ...    0.005 sec
Total time needed                          ...    0.067 sec

-------------------
DFT GRID GENERATION
-------------------

General Integration Accuracy     IntAcc      ...  4.340
Radial Grid Type                 RadialGrid  ... Gauss-Chebyshev
Angular Grid (max. acc.)         AngularGrid ... Lebedev-110
Angular grid pruning method      GridPruning ... 3 (G Style)
Weight generation scheme         WeightScheme... Becke
Basis function cutoff            BFCut       ...    1.0000e-11
Integration weight cutoff        WCut        ...    1.0000e-14
Grids for H and He will be reduced by one unit

# of grid points (after initial pruning)     ...  34844 (   0.0 sec)
# of grid points (after weights+screening)   ...  31728 (   0.1 sec)
nearest neighbour list constructed           ...    0.0 sec
Grid point re-assignment to atoms done       ...    0.0 sec
Grid point division into batches done        ...    0.0 sec
Reduced shell lists constructed in    0.3 sec

Total number of grid points                  ...    31728
Total number of batches                      ...      507
Average number of points per batch           ...       62
Average number of grid points per atom       ...     1220
Average number of shells per batch           ...    67.93 (53.91%)
Average number of basis functions per batch  ...   142.21 (51.90%)
Average number of large shells per batch     ...    47.96 (70.61%)
Average number of large basis fcns per batch ...    99.99 (70.31%)
Maximum spatial batch extension              ...  18.47, 25.60, 25.60 au
Average spatial batch extension              ...   3.27,  3.54,  3.60 au

Time for grid setup =    0.428 sec

------------------------------
INITIAL GUESS: MODEL POTENTIAL
------------------------------
Loading Hartree-Fock densities                     ... done
Calculating cut-offs                               ... done
Setting up the integral package                    ... done
Initializing the effective Hamiltonian             ... done
Starting the Coulomb interaction                   ... done (   0.3 sec)
Reading the grid                                   ... done
Mapping shells                                     ... done
Starting the XC term evaluation                    ... done (   0.4 sec)
  promolecular density results
     # of electrons  =    119.995430905
     EX              =   -106.778329354
     EC              =     -4.079801302
     EX+EC           =   -110.858130655
Transforming the Hamiltonian                       ... done (   0.0 sec)
Diagonalizing the Hamiltonian                      ... done (   0.0 sec)
Back transforming the eigenvectors                 ... done (   0.0 sec)
Now organizing SCF variables                       ... done
                      ------------------
                      INITIAL GUESS DONE (   1.3 sec)
                      ------------------
--------------
SCF ITERATIONS
--------------
ITER       Energy         Delta-E        Max-DP      RMS-DP      [F,P]     Damp
               ***  Starting incremental Fock matrix formation  ***
  0   -886.4265734161   0.000000000000 0.07882331  0.00170348  0.2514264 0.7000
  1   -886.5697735373  -0.143200121126 0.04739708  0.00119484  0.1139097 0.7000
                               ***Turning on DIIS***
  2   -886.6354390418  -0.065665504542 0.08145455  0.00234073  0.0408185 0.0000
  3   -886.7467630139  -0.111323972060 0.03760152  0.00068629  0.0580920 0.0000
  4   -886.7626860822  -0.015923068376 0.00968524  0.00017149  0.0099204 0.0000
  5   -886.7632671934  -0.000581111129 0.00283940  0.00005644  0.0042154 0.0000
                      *** Initiating the SOSCF procedure ***
                           *** Shutting down DIIS ***
                      *** Re-Reading the Fockian *** 
                      *** Removing any level shift *** 
ITER      Energy       Delta-E        Grad      Rot      Max-DP    RMS-DP
  6   -886.76332913  -0.0000619341  0.000753  0.000753  0.000978  0.000026
               *** Restarting incremental Fock matrix formation ***
  7   -886.76334140  -0.0000122724  0.000267  0.000710  0.000767  0.000019
  8   -886.76334482  -0.0000034242  0.000374  0.000718  0.000502  0.000013
  9   -886.76334632  -0.0000014945  0.000102  0.000145  0.000173  0.000004
 10   -886.76334645  -0.0000001279  0.000044  0.000042  0.000075  0.000002
 11   -886.76334648  -0.0000000327  0.000013  0.000030  0.000026  0.000001
 12   -886.76334649  -0.0000000068  0.000005  0.000020  0.000007  0.000000
                  ***Gradient check signals convergence***
              ***Rediagonalizing the Fockian in SOSCF/NRSCF***

               *****************************************************
               *                     SUCCESS                       *
               *           SCF CONVERGED AFTER  13 CYCLES          *
               *****************************************************

Setting up the final grid:

General Integration Accuracy     IntAcc      ...  4.670
Radial Grid Type                 RadialGrid  ... Gauss-Chebyshev
Angular Grid (max. acc.)         AngularGrid ... Lebedev-302
Angular grid pruning method      GridPruning ... 3 (G Style)
Weight generation scheme         WeightScheme... Becke
Basis function cutoff            BFCut       ...    1.0000e-11
Integration weight cutoff        WCut        ...    1.0000e-14
Grids for H and He will be reduced by one unit

# of grid points (after initial pruning)     ... 133452 (   0.1 sec)
# of grid points (after weights+screening)   ... 119379 (   0.6 sec)
nearest neighbour list constructed           ...    0.0 sec
Grid point re-assignment to atoms done       ...    0.0 sec
Grid point division into batches done        ...    0.4 sec
Reduced shell lists constructed in    1.3 sec

Total number of grid points                  ...   119379
Total number of batches                      ...     1879
Average number of points per batch           ...       63
Average number of grid points per atom       ...     4592
Average number of shells per batch           ...    61.34 (48.68%)
Average number of basis functions per batch  ...   127.20 (46.43%)
Average number of large shells per batch     ...    42.64 (69.52%)
Average number of large basis fcns per batch ...    88.12 (69.27%)
Maximum spatial batch extension              ...  17.83, 18.19, 19.76 au
Average spatial batch extension              ...   2.26,  2.33,  2.36 au

Final grid set up in    1.9 sec
Final integration                            ... done (   2.0 sec)
Change in XC energy                          ...     0.003487716
Integrated number of electrons               ...   119.999949585
Previous integrated no of electrons          ...   119.997569211

----------------
TOTAL SCF ENERGY
----------------

Total Energy       :         -886.75985877 Eh          -24129.96250 eV

Components:
Nuclear Repulsion  :         1140.99212387 Eh           31047.97414 eV
Electronic Energy  :        -2027.75198264 Eh          -55177.93664 eV
One Electron Energy:        -3481.46413673 Eh          -94735.45542 eV
Two Electron Energy:         1453.71215409 Eh           39557.51878 eV

Virial components:
Potential Energy   :        -1766.25990682 Eh          -48062.37551 eV
Kinetic Energy     :          879.50004805 Eh           23932.41301 eV
Virial Ratio       :            2.00825447


DFT components:
N(Alpha)           :       59.999974792737 electrons
N(Beta)            :       59.999974792737 electrons
N(Total)           :      119.999949585475 electrons
E(XC)              :      -78.896239700394 Eh       
DFET-embed. en.    :        0.000000000000 Eh       

---------------
SCF CONVERGENCE
---------------

  Last Energy change         ...    8.1536e-10  Tolerance :   1.0000e-08
  Last MAX-Density change    ...    2.7961e-06  Tolerance :   1.0000e-07
  Last RMS-Density change    ...    1.2543e-07  Tolerance :   5.0000e-09
  Last Orbital Gradient      ...    2.0537e-06  Tolerance :   1.0000e-05
  Last Orbital Rotation      ...    8.3895e-06  Tolerance :   1.0000e-05

             **** THE GBW FILE WAS UPDATED (043651898.gbw) ****
             **** DENSITY FILE WAS UPDATED (043651898.scfp) ****
             **** ENERGY FILE WAS UPDATED (043651898.en.tmp) ****
             **** THE GBW FILE WAS UPDATED (043651898.gbw) ****
             **** DENSITY FILE WAS UPDATED (043651898.scfp) ****
----------------
ORBITAL ENERGIES
----------------

  NO   OCC          E(Eh)            E(eV) 
   0   2.0000     -24.817788      -675.3264 
   1   2.0000     -24.810839      -675.1373 
   2   2.0000     -19.312555      -525.5213 
   3   2.0000     -19.299811      -525.1745 
   4   2.0000     -19.281187      -524.6678 
   5   2.0000     -19.239827      -523.5423 
   6   2.0000     -10.517276      -286.1896 
   7   2.0000     -10.435238      -283.9573 
   8   2.0000     -10.375535      -282.3327 
   9   2.0000     -10.363988      -282.0184 
  10   2.0000     -10.351834      -281.6877 
  11   2.0000     -10.307286      -280.4755 
  12   2.0000     -10.306492      -280.4539 
  13   2.0000     -10.304230      -280.3924 
  14   2.0000     -10.299917      -280.2750 
  15   2.0000     -10.296445      -280.1805 
  16   2.0000      -1.383845       -37.6563 
  17   2.0000      -1.306190       -35.5432 
  18   2.0000      -1.233066       -33.5534 
  19   2.0000      -1.204996       -32.7896 
  20   2.0000      -1.186656       -32.2906 
  21   2.0000      -1.143333       -31.1117 
  22   2.0000      -0.990167       -26.9438 
  23   2.0000      -0.916718       -24.9452 
  24   2.0000      -0.878312       -23.9001 
  25   2.0000      -0.863661       -23.5014 
  26   2.0000      -0.821614       -22.3573 
  27   2.0000      -0.780554       -21.2399 
  28   2.0000      -0.740956       -20.1624 
  29   2.0000      -0.737748       -20.0752 
  30   2.0000      -0.721998       -19.6466 
  31   2.0000      -0.710642       -19.3375 
  32   2.0000      -0.684265       -18.6198 
  33   2.0000      -0.674975       -18.3670 
  34   2.0000      -0.651847       -17.7377 
  35   2.0000      -0.611211       -16.6319 
  36   2.0000      -0.599282       -16.3073 
  37   2.0000      -0.586564       -15.9612 
  38   2.0000      -0.584401       -15.9024 
  39   2.0000      -0.569040       -15.4844 
  40   2.0000      -0.565751       -15.3949 
  41   2.0000      -0.559887       -15.2353 
  42   2.0000      -0.556613       -15.1462 
  43   2.0000      -0.551043       -14.9946 
  44   2.0000      -0.538666       -14.6579 
  45   2.0000      -0.536327       -14.5942 
  46   2.0000      -0.526280       -14.3208 
  47   2.0000      -0.514056       -13.9882 
  48   2.0000      -0.499992       -13.6055 
  49   2.0000      -0.495495       -13.4831 
  50   2.0000      -0.489525       -13.3207 
  51   2.0000      -0.473238       -12.8775 
  52   2.0000      -0.460615       -12.5340 
  53   2.0000      -0.437281       -11.8990 
  54   2.0000      -0.432708       -11.7746 
  55   2.0000      -0.430386       -11.7114 
  56   2.0000      -0.426790       -11.6135 
  57   2.0000      -0.384165       -10.4537 
  58   2.0000      -0.357997        -9.7416 
  59   2.0000      -0.318728        -8.6730 
  60   0.0000       0.056103         1.5266 
  61   0.0000       0.057608         1.5676 
  62   0.0000       0.075843         2.0638 
  63   0.0000       0.134750         3.6667 
  64   0.0000       0.145084         3.9479 
  65   0.0000       0.159426         4.3382 
  66   0.0000       0.172741         4.7005 
  67   0.0000       0.180710         4.9174 
  68   0.0000       0.198477         5.4008 
  69   0.0000       0.201899         5.4940 
  70   0.0000       0.212373         5.7790 
  71   0.0000       0.216305         5.8860 
  72   0.0000       0.217600         5.9212 
  73   0.0000       0.229737         6.2515 
  74   0.0000       0.251488         6.8433 
  75   0.0000       0.262699         7.1484 
  76   0.0000       0.273667         7.4469 
  77   0.0000       0.279222         7.5980 
  78   0.0000       0.283220         7.7068 
  79   0.0000       0.311906         8.4874 
  80   0.0000       0.339406         9.2357 
  81   0.0000       0.351952         9.5771 
  82   0.0000       0.370136        10.0719 
  83   0.0000       0.375169        10.2089 
  84   0.0000       0.393842        10.7170 
  85   0.0000       0.401987        10.9386 
  86   0.0000       0.413200        11.2437 
  87   0.0000       0.429409        11.6848 
  88   0.0000       0.458993        12.4898 
  89   0.0000       0.480881        13.0854 
  90   0.0000       0.501019        13.6334 
  91   0.0000       0.501486        13.6461 
  92   0.0000       0.527719        14.3600 
  93   0.0000       0.530896        14.4464 
  94   0.0000       0.536094        14.5879 
  95   0.0000       0.538067        14.6415 
  96   0.0000       0.549294        14.9471 
  97   0.0000       0.554604        15.0915 
  98   0.0000       0.568108        15.4590 
  99   0.0000       0.578142        15.7321 
 100   0.0000       0.582034        15.8380 
 101   0.0000       0.599703        16.3187 
 102   0.0000       0.616503        16.7759 
 103   0.0000       0.618863        16.8401 
 104   0.0000       0.620432        16.8828 
 105   0.0000       0.643725        17.5166 
 106   0.0000       0.652074        17.7438 
 107   0.0000       0.659066        17.9341 
 108   0.0000       0.686698        18.6860 
 109   0.0000       0.699162        19.0252 
 110   0.0000       0.704994        19.1839 
 111   0.0000       0.719262        19.5721 
 112   0.0000       0.729631        19.8543 
 113   0.0000       0.734729        19.9930 
 114   0.0000       0.735707        20.0196 
 115   0.0000       0.741332        20.1727 
 116   0.0000       0.747619        20.3438 
 117   0.0000       0.752684        20.4816 
 118   0.0000       0.759251        20.6603 
 119   0.0000       0.770145        20.9567 
 120   0.0000       0.775875        21.1126 
 121   0.0000       0.790317        21.5056 
 122   0.0000       0.796220        21.6662 
 123   0.0000       0.802165        21.8280 
 124   0.0000       0.816552        22.2195 
 125   0.0000       0.825647        22.4670 
 126   0.0000       0.844455        22.9788 
 127   0.0000       0.850555        23.1448 
 128   0.0000       0.889207        24.1966 
 129   0.0000       0.922447        25.1011 
 130   0.0000       0.938275        25.5318 
 131   0.0000       0.944377        25.6978 
 132   0.0000       0.975153        26.5353 
 133   0.0000       1.006220        27.3806 
 134   0.0000       1.011116        27.5139 
 135   0.0000       1.048056        28.5190 
 136   0.0000       1.074694        29.2439 
 137   0.0000       1.082357        29.4524 
 138   0.0000       1.098807        29.9000 
 139   0.0000       1.110016        30.2051 
 140   0.0000       1.136098        30.9148 
 141   0.0000       1.181280        32.1443 
 142   0.0000       1.195073        32.5196 
 143   0.0000       1.204156        32.7667 
 144   0.0000       1.231247        33.5039 
 145   0.0000       1.250758        34.0349 
 146   0.0000       1.251658        34.0593 
 147   0.0000       1.263637        34.3853 
 148   0.0000       1.292313        35.1656 
 149   0.0000       1.302625        35.4462 
 150   0.0000       1.315664        35.8010 
 151   0.0000       1.326214        36.0881 
 152   0.0000       1.338778        36.4300 
 153   0.0000       1.341534        36.5050 
 154   0.0000       1.356264        36.9058 
 155   0.0000       1.362294        37.0699 
 156   0.0000       1.382890        37.6303 
 157   0.0000       1.401268        38.1304 
 158   0.0000       1.406736        38.2792 
 159   0.0000       1.428436        38.8697 
 160   0.0000       1.457414        39.6582 
 161   0.0000       1.482214        40.3331 
 162   0.0000       1.511870        41.1401 
 163   0.0000       1.524972        41.4966 
 164   0.0000       1.548718        42.1427 
 165   0.0000       1.557534        42.3827 
 166   0.0000       1.578931        42.9649 
 167   0.0000       1.601831        43.5880 
 168   0.0000       1.605112        43.6773 
 169   0.0000       1.613283        43.8997 
 170   0.0000       1.634148        44.4674 
 171   0.0000       1.651134        44.9296 
 172   0.0000       1.691012        46.0148 
 173   0.0000       1.710726        46.5512 
 174   0.0000       1.731906        47.1276 
 175   0.0000       1.750832        47.6426 
 176   0.0000       1.771496        48.2049 
 177   0.0000       1.783602        48.5343 
 178   0.0000       1.797094        48.9014 
 179   0.0000       1.803740        49.0823 
 180   0.0000       1.817564        49.4584 
 181   0.0000       1.837496        50.0008 
 182   0.0000       1.844798        50.1995 
 183   0.0000       1.847944        50.2851 
 184   0.0000       1.850475        50.3540 
 185   0.0000       1.869092        50.8606 
 186   0.0000       1.879397        51.1410 
 187   0.0000       1.883808        51.2610 
 188   0.0000       1.888903        51.3997 
 189   0.0000       1.903443        51.7953 
 190   0.0000       1.935392        52.6647 
 191   0.0000       1.948350        53.0173 
 192   0.0000       1.950157        53.0665 
 193   0.0000       1.970729        53.6263 
 194   0.0000       1.977811        53.8190 
 195   0.0000       1.981540        53.9204 
 196   0.0000       1.999971        54.4220 
 197   0.0000       2.023741        55.0688 
 198   0.0000       2.031108        55.2693 
 199   0.0000       2.045683        55.6659 
 200   0.0000       2.052962        55.8639 
 201   0.0000       2.070674        56.3459 
 202   0.0000       2.080932        56.6250 
 203   0.0000       2.092430        56.9379 
 204   0.0000       2.118875        57.6575 
 205   0.0000       2.157434        58.7068 
 206   0.0000       2.173323        59.1391 
 207   0.0000       2.191370        59.6302 
 208   0.0000       2.215287        60.2810 
 209   0.0000       2.231954        60.7346 
 210   0.0000       2.246454        61.1291 
 211   0.0000       2.262878        61.5760 
 212   0.0000       2.280964        62.0682 
 213   0.0000       2.287240        62.2390 
 214   0.0000       2.297690        62.5233 
 215   0.0000       2.310911        62.8831 
 216   0.0000       2.354531        64.0701 
 217   0.0000       2.402658        65.3796 
 218   0.0000       2.405018        65.4439 
 219   0.0000       2.419629        65.8415 
 220   0.0000       2.434524        66.2468 
 221   0.0000       2.439775        66.3897 
 222   0.0000       2.448411        66.6247 
 223   0.0000       2.455615        66.8207 
 224   0.0000       2.487947        67.7005 
 225   0.0000       2.533061        68.9281 
 226   0.0000       2.562328        69.7245 
 227   0.0000       2.627868        71.5079 
 228   0.0000       2.723865        74.1201 
 229   0.0000       2.728851        74.2558 
 230   0.0000       2.731929        74.3396 
 231   0.0000       2.737734        74.4975 
 232   0.0000       2.763821        75.2074 
 233   0.0000       2.776121        75.5421 
 234   0.0000       2.808261        76.4167 
 235   0.0000       2.832997        77.0898 
 236   0.0000       2.852469        77.6196 
 237   0.0000       2.854902        77.6858 
 238   0.0000       2.901570        78.9557 
 239   0.0000       2.911021        79.2129 
 240   0.0000       2.932856        79.8071 
 241   0.0000       2.968934        80.7888 
 242   0.0000       2.977493        81.0217 
 243   0.0000       2.979346        81.0721 
 244   0.0000       2.985078        81.2281 
 245   0.0000       3.008673        81.8702 
 246   0.0000       3.048762        82.9610 
 247   0.0000       3.066263        83.4373 
 248   0.0000       3.090204        84.0887 
 249   0.0000       3.147434        85.6460 
 250   0.0000       3.154402        85.8356 
 251   0.0000       3.160901        86.0125 
 252   0.0000       3.171219        86.2933 
 253   0.0000       3.178784        86.4991 
 254   0.0000       3.181557        86.5746 
 255   0.0000       3.216367        87.5218 
 256   0.0000       3.221560        87.6631 
 257   0.0000       3.227508        87.8249 
 258   0.0000       3.283862        89.3584 
 259   0.0000       3.319127        90.3180 
 260   0.0000       3.328868        90.5831 
 261   0.0000       3.438370        93.5628 
 262   0.0000       3.448679        93.8433 
 263   0.0000       3.478413        94.6524 
 264   0.0000       3.501267        95.2743 
 265   0.0000       3.520919        95.8091 
 266   0.0000       3.595078        97.8270 
 267   0.0000       3.646396        99.2235 
 268   0.0000       3.658334        99.5483 
 269   0.0000       3.785730       103.0150 
 270   0.0000       3.809076       103.6502 
 271   0.0000       3.820457       103.9599 
 272   0.0000       3.902436       106.1907 
 273   0.0000       3.937732       107.1511 

                    ********************************
                    * MULLIKEN POPULATION ANALYSIS *
                    ********************************

-----------------------
MULLIKEN ATOMIC CHARGES
-----------------------
   0 C :    0.135443
   1 H :    0.058677
   2 O :   -0.337380
   3 C :    0.239638
   4 C :   -0.117031
   5 C :    0.012356
   6 C :   -0.134771
   7 C :    0.002000
   8 C :   -0.035703
   9 H :    0.014014
  10 H :    0.004316
  11 C :    0.289744
  12 H :    0.049799
  13 H :    0.049857
  14 O :   -0.397235
  15 C :    0.457438
  16 F :   -0.194546
  17 F :   -0.202191
  18 C :    0.167396
  19 O :   -0.185575
  20 O :   -0.173519
  21 H :    0.207424
  22 H :    0.007392
  23 H :    0.002452
  24 H :    0.042798
  25 H :    0.037209
Sum of atomic charges:   -0.0000000

--------------------------------
MULLIKEN REDUCED ORBITAL CHARGES
--------------------------------
  0 C s       :     3.022759  s :     3.022759
      pz      :     0.973094  p :     2.787812
      px      :     0.955479
      py      :     0.859238
      dz2     :     0.010306  d :     0.053986
      dxz     :     0.010769
      dyz     :     0.008939
      dx2y2   :     0.010583
      dxy     :     0.013389
  1 H s       :     0.919372  s :     0.919372
      pz      :     0.007595  p :     0.021951
      px      :     0.010730
      py      :     0.003626
  2 O s       :     3.728814  s :     3.728814
      pz      :     1.667898  p :     4.591448
      px      :     1.366771
      py      :     1.556779
      dz2     :     0.002231  d :     0.017118
      dxz     :     0.004726
      dyz     :     0.003532
      dx2y2   :     0.003937
      dxy     :     0.002693
  3 C s       :     2.939688  s :     2.939688
      pz      :     0.962377  p :     2.743432
      px      :     0.823138
      py      :     0.957918
      dz2     :     0.014382  d :     0.077243
      dxz     :     0.018724
      dyz     :     0.011061
      dx2y2   :     0.017804
      dxy     :     0.015271
  4 C s       :     3.221525  s :     3.221525
      pz      :     0.949576  p :     2.862173
      px      :     0.958946
      py      :     0.953651
      dz2     :     0.007387  d :     0.033333
      dxz     :     0.008305
      dyz     :     0.005678
      dx2y2   :     0.005232
      dxy     :     0.006732
  5 C s       :     3.185453  s :     3.185453
      pz      :     0.893858  p :     2.765445
      px      :     0.927506
      py      :     0.944081
      dz2     :     0.006467  d :     0.036747
      dxz     :     0.008443
      dyz     :     0.005543
      dx2y2   :     0.008832
      dxy     :     0.007461
  6 C s       :     3.031869  s :     3.031869
      pz      :     1.032137  p :     3.060632
      px      :     0.986713
      py      :     1.041781
      dz2     :     0.009489  d :     0.042270
      dxz     :     0.009641
      dyz     :     0.007014
      dx2y2   :     0.008165
      dxy     :     0.007961
  7 C s       :     3.194572  s :     3.194572
      pz      :     0.936306  p :     2.766815
      px      :     0.916667
      py      :     0.913842
      dz2     :     0.007978  d :     0.036613
      dxz     :     0.008788
      dyz     :     0.006589
      dx2y2   :     0.005976
      dxy     :     0.007282
  8 C s       :     3.220543  s :     3.220543
      pz      :     0.895590  p :     2.782015
      px      :     0.911220
      py      :     0.975205
      dz2     :     0.005677  d :     0.033145
      dxz     :     0.008510
      dyz     :     0.005015
      dx2y2   :     0.007062
      dxy     :     0.006881
  9 H s       :     0.962186  s :     0.962186
      pz      :     0.012588  p :     0.023800
      px      :     0.005800
      py      :     0.005412
 10 H s       :     0.972180  s :     0.972180
      pz      :     0.007086  p :     0.023504
      px      :     0.006584
      py      :     0.009834
 11 C s       :     2.969328  s :     2.969328
      pz      :     0.894832  p :     2.684094
      px      :     0.786060
      py      :     1.003201
      dz2     :     0.012213  d :     0.056834
      dxz     :     0.015212
      dyz     :     0.005360
      dx2y2   :     0.015175
      dxy     :     0.008874
 12 H s       :     0.928538  s :     0.928538
      pz      :     0.003703  p :     0.021663
      px      :     0.002912
      py      :     0.015048
 13 H s       :     0.927536  s :     0.927536
      pz      :     0.013676  p :     0.022607
      px      :     0.003481
      py      :     0.005450
 14 O s       :     3.743718  s :     3.743718
      pz      :     1.691735  p :     4.637762
      px      :     1.590819
      py      :     1.355208
      dz2     :     0.002557  d :     0.015755
      dxz     :     0.002800
      dyz     :     0.002361
      dx2y2   :     0.005500
      dxy     :     0.002537
 15 C s       :     2.966080  s :     2.966080
      pz      :     0.774079  p :     2.409641
      px      :     0.877368
      py      :     0.758194
      dz2     :     0.035203  d :     0.166841
      dxz     :     0.029645
      dyz     :     0.034507
      dx2y2   :     0.033739
      dxy     :     0.033747
 16 F s       :     3.905083  s :     3.905083
      pz      :     1.855691  p :     5.281733
      px      :     1.672375
      py      :     1.753667
      dz2     :     0.000978  d :     0.007730
      dxz     :     0.001473
      dyz     :     0.001094
      dx2y2   :     0.001444
      dxy     :     0.002742
 17 F s       :     3.902310  s :     3.902310
      pz      :     1.539384  p :     5.292155
      px      :     1.896917
      py      :     1.855854
      dz2     :     0.003257  d :     0.007725
      dxz     :     0.001624
      dyz     :     0.002202
      dx2y2   :     0.000291
      dxy     :     0.000351
 18 C s       :     3.072231  s :     3.072231
      pz      :     0.844078  p :     2.617522
      px      :     0.906246
      py      :     0.867198
      dz2     :     0.012843  d :     0.142851
      dxz     :     0.013261
      dyz     :     0.040078
      dx2y2   :     0.042040
      dxy     :     0.034628
 19 O s       :     3.727080  s :     3.727080
      pz      :     1.523291  p :     4.437950
      px      :     1.530078
      py      :     1.384581
      dz2     :     0.002287  d :     0.020545
      dxz     :     0.001291
      dyz     :     0.004665
      dx2y2   :     0.005938
      dxy     :     0.006365
 20 O s       :     3.656670  s :     3.656670
      pz      :     1.672561  p :     4.502533
      px      :     1.624887
      py      :     1.205085
      dz2     :     0.002498  d :     0.014316
      dxz     :     0.002311
      dyz     :     0.003548
      dx2y2   :     0.001257
      dxy     :     0.004702
 21 H s       :     0.721078  s :     0.721078
      pz      :     0.016676  p :     0.071498
      px      :     0.024341
      py      :     0.030481
 22 H s       :     0.968896  s :     0.968896
      pz      :     0.012390  p :     0.023712
      px      :     0.005565
      py      :     0.005757
 23 H s       :     0.973353  s :     0.973353
      pz      :     0.007193  p :     0.024196
      px      :     0.006543
      py      :     0.010460
 24 H s       :     0.934439  s :     0.934439
      pz      :     0.004679  p :     0.022763
      px      :     0.006565
      py      :     0.011518
 25 H s       :     0.939615  s :     0.939615
      pz      :     0.013715  p :     0.023176
      px      :     0.005169
      py      :     0.004293


                     *******************************
                     * LOEWDIN POPULATION ANALYSIS *
                     *******************************

----------------------
LOEWDIN ATOMIC CHARGES
----------------------
   0 C :    0.075784
   1 H :    0.031942
   2 O :   -0.106493
   3 C :    0.064851
   4 C :   -0.078389
   5 C :   -0.002135
   6 C :   -0.091329
   7 C :   -0.006328
   8 C :   -0.043421
   9 H :    0.036639
  10 H :    0.030284
  11 C :    0.109773
  12 H :    0.035537
  13 H :    0.027885
  14 O :   -0.135166
  15 C :    0.126768
  16 F :   -0.083617
  17 F :   -0.086302
  18 C :    0.043789
  19 O :   -0.127228
  20 O :   -0.015846
  21 H :    0.095792
  22 H :    0.032019
  23 H :    0.031127
  24 H :    0.018315
  25 H :    0.015750

-------------------------------
LOEWDIN REDUCED ORBITAL CHARGES
-------------------------------
  0 C s       :     2.839787  s :     2.839787
      pz      :     1.030848  p :     2.959804
      px      :     0.997062
      py      :     0.931893
      dz2     :     0.025396  d :     0.124625
      dxz     :     0.025845
      dyz     :     0.019692
      dx2y2   :     0.023985
      dxy     :     0.029707
  1 H s       :     0.904047  s :     0.904047
      pz      :     0.021404  p :     0.064012
      px      :     0.031947
      py      :     0.010661
  2 O s       :     3.426485  s :     3.426485
      pz      :     1.676265  p :     4.648233
      px      :     1.404725
      py      :     1.567243
      dz2     :     0.003619  d :     0.031775
      dxz     :     0.008640
      dyz     :     0.005599
      dx2y2   :     0.007722
      dxy     :     0.006196
  3 C s       :     2.833166  s :     2.833166
      pz      :     1.035520  p :     2.925166
      px      :     0.894518
      py      :     0.995128
      dz2     :     0.032655  d :     0.176817
      dxz     :     0.045511
      dyz     :     0.026110
      dx2y2   :     0.038321
      dxy     :     0.034220
  4 C s       :     2.848096  s :     2.848096
      pz      :     1.043421  p :     3.140875
      px      :     1.056301
      py      :     1.041153
      dz2     :     0.018976  d :     0.089419
      dxz     :     0.024062
      dyz     :     0.015306
      dx2y2   :     0.013562
      dxy     :     0.017511
  5 C s       :     2.849133  s :     2.849133
      pz      :     1.019504  p :     3.056741
      px      :     1.037855
      py      :     0.999382
      dz2     :     0.016810  d :     0.096261
      dxz     :     0.022557
      dyz     :     0.014659
      dx2y2   :     0.021386
      dxy     :     0.020849
  6 C s       :     2.846115  s :     2.846115
      pz      :     1.063202  p :     3.137063
      px      :     1.025703
      py      :     1.048158
      dz2     :     0.023816  d :     0.108151
      dxz     :     0.025253
      dyz     :     0.019398
      dx2y2   :     0.019615
      dxy     :     0.020069
  7 C s       :     2.848617  s :     2.848617
      pz      :     1.027343  p :     3.061902
      px      :     1.036226
      py      :     0.998332
      dz2     :     0.020093  d :     0.095809
      dxz     :     0.025280
      dyz     :     0.016876
      dx2y2   :     0.014894
      dxy     :     0.018667
  8 C s       :     2.852033  s :     2.852033
      pz      :     1.031712  p :     3.102782
      px      :     1.047937
      py      :     1.023134
      dz2     :     0.014902  d :     0.088607
      dxz     :     0.023079
      dyz     :     0.013639
      dx2y2   :     0.017586
      dxy     :     0.019402
  9 H s       :     0.892425  s :     0.892425
      pz      :     0.036032  p :     0.070936
      px      :     0.017543
      py      :     0.017361
 10 H s       :     0.901064  s :     0.901064
      pz      :     0.021059  p :     0.068652
      px      :     0.019475
      py      :     0.028119
 11 C s       :     2.841644  s :     2.841644
      pz      :     0.967216  p :     2.916216
      px      :     0.902300
      py      :     1.046700
      dz2     :     0.030303  d :     0.132367
      dxz     :     0.034335
      dyz     :     0.011235
      dx2y2   :     0.037605
      dxy     :     0.018889
 12 H s       :     0.899572  s :     0.899572
      pz      :     0.010693  p :     0.064891
      px      :     0.010260
      py      :     0.043938
 13 H s       :     0.904462  s :     0.904462
      pz      :     0.041092  p :     0.067653
      px      :     0.011131
      py      :     0.015430
 14 O s       :     3.440517  s :     3.440517
      pz      :     1.675882  p :     4.664785
      px      :     1.572562
      py      :     1.416341
      dz2     :     0.004847  d :     0.029864
      dxz     :     0.004623
      dyz     :     0.003949
      dx2y2   :     0.010904
      dxy     :     0.005541
 15 C s       :     2.860723  s :     2.860723
      pz      :     0.853694  p :     2.658865
      px      :     0.941084
      py      :     0.864087
      dz2     :     0.075355  d :     0.353644
      dxz     :     0.064233
      dyz     :     0.068871
      dx2y2   :     0.074895
      dxy     :     0.070290
 16 F s       :     3.743920  s :     3.743920
      pz      :     1.860367  p :     5.327464
      px      :     1.695266
      py      :     1.771830
      dz2     :     0.001544  d :     0.012234
      dxz     :     0.002262
      dyz     :     0.001681
      dx2y2   :     0.002012
      dxy     :     0.004734
 17 F s       :     3.739820  s :     3.739820
      pz      :     1.578520  p :     5.334265
      px      :     1.894724
      py      :     1.861021
      dz2     :     0.005526  d :     0.012218
      dxz     :     0.002335
      dyz     :     0.003476
      dx2y2   :     0.000386
      dxy     :     0.000494
 18 C s       :     2.862083  s :     2.862083
      pz      :     0.870830  p :     2.784067
      px      :     0.946584
      py      :     0.966653
      dz2     :     0.026779  d :     0.310061
      dxz     :     0.028373
      dyz     :     0.084829
      dx2y2   :     0.093915
      dxy     :     0.076165
 19 O s       :     3.532435  s :     3.532435
      pz      :     1.513125  p :     4.560810
      px      :     1.551379
      py      :     1.496305
      dz2     :     0.004736  d :     0.033983
      dxz     :     0.001665
      dyz     :     0.006047
      dx2y2   :     0.009408
      dxy     :     0.012126
 20 O s       :     3.404716  s :     3.404716
      pz      :     1.663218  p :     4.583077
      px      :     1.638801
      py      :     1.281059
      dz2     :     0.003618  d :     0.028053
      dxz     :     0.002951
      dyz     :     0.007911
      dx2y2   :     0.003135
      dxy     :     0.010438
 21 H s       :     0.721690  s :     0.721690
      pz      :     0.046073  p :     0.182517
      px      :     0.067303
      py      :     0.069141
 22 H s       :     0.899046  s :     0.899046
      pz      :     0.034872  p :     0.068934
      px      :     0.016738
      py      :     0.017324
 23 H s       :     0.896453  s :     0.896453
      pz      :     0.022249  p :     0.072420
      px      :     0.019897
      py      :     0.030274
 24 H s       :     0.915919  s :     0.915919
      pz      :     0.011961  p :     0.065766
      px      :     0.018855
      py      :     0.034950
 25 H s       :     0.918491  s :     0.918491
      pz      :     0.039084  p :     0.065759
      px      :     0.014604
      py      :     0.012071


                      *****************************
                      * MAYER POPULATION ANALYSIS *
                      *****************************

  NA   - Mulliken gross atomic population
  ZA   - Total nuclear charge
  QA   - Mulliken gross atomic charge
  VA   - Mayer's total valence
  BVA  - Mayer's bonded valence
  FA   - Mayer's free valence

  ATOM       NA         ZA         QA         VA         BVA        FA
  0 C      5.8646     6.0000     0.1354     3.9172     3.9172    -0.0000
  1 H      0.9413     1.0000     0.0587     0.9920     0.9920     0.0000
  2 O      8.3374     8.0000    -0.3374     2.1751     2.1751    -0.0000
  3 C      5.7604     6.0000     0.2396     3.8866     3.8866    -0.0000
  4 C      6.1170     6.0000    -0.1170     3.8573     3.8573    -0.0000
  5 C      5.9876     6.0000     0.0124     3.9232     3.9232    -0.0000
  6 C      6.1348     6.0000    -0.1348     3.8785     3.8785    -0.0000
  7 C      5.9980     6.0000     0.0020     3.8813     3.8813    -0.0000
  8 C      6.0357     6.0000    -0.0357     3.8808     3.8808    -0.0000
  9 H      0.9860     1.0000     0.0140     1.0012     1.0012     0.0000
 10 H      0.9957     1.0000     0.0043     0.9937     0.9937     0.0000
 11 C      5.7103     6.0000     0.2897     3.8706     3.8706    -0.0000
 12 H      0.9502     1.0000     0.0498     0.9883     0.9883    -0.0000
 13 H      0.9501     1.0000     0.0499     1.0060     1.0060    -0.0000
 14 O      8.3972     8.0000    -0.3972     2.0929     2.0929     0.0000
 15 C      5.5426     6.0000     0.4574     4.2172     4.2172     0.0000
 16 F      9.1945     9.0000    -0.1945     1.1523     1.1523    -0.0000
 17 F      9.2022     9.0000    -0.2022     1.1473     1.1473    -0.0000
 18 C      5.8326     6.0000     0.1674     4.3209     4.3209     0.0000
 19 O      8.1856     8.0000    -0.1856     2.3167     2.3167     0.0000
 20 O      8.1735     8.0000    -0.1735     2.2668     2.2668    -0.0000
 21 H      0.7926     1.0000     0.2074     1.0245     1.0245    -0.0000
 22 H      0.9926     1.0000     0.0074     0.9958     0.9958    -0.0000
 23 H      0.9975     1.0000     0.0025     1.0013     1.0013    -0.0000
 24 H      0.9572     1.0000     0.0428     0.9860     0.9860     0.0000
 25 H      0.9628     1.0000     0.0372     0.9856     0.9856     0.0000

  Mayer bond orders larger than 0.100000
B(  0-C ,  1-H ) :   0.9809 B(  0-C ,  2-O ) :   0.9492 B(  0-C , 24-H ) :   0.9712 
B(  0-C , 25-H ) :   0.9711 B(  2-O ,  3-C ) :   1.1295 B(  3-C ,  4-C ) :   1.3244 
B(  3-C ,  8-C ) :   1.3508 B(  4-C ,  5-C ) :   1.3760 B(  4-C , 23-H ) :   1.0004 
B(  5-C ,  6-C ) :   1.4092 B(  5-C , 22-H ) :   0.9906 B(  6-C ,  7-C ) :   1.3424 
B(  6-C , 11-C ) :   1.0506 B(  7-C ,  8-C ) :   1.4304 B(  7-C , 10-H ) :   0.9990 
B(  8-C ,  9-H ) :   0.9994 B( 11-C , 12-H ) :   0.9537 B( 11-C , 13-H ) :   0.9568 
B( 11-C , 14-O ) :   0.8666 B( 14-O , 15-C ) :   1.1511 B( 15-C , 16-F ) :   1.0872 
B( 15-C , 17-F ) :   1.0782 B( 15-C , 18-C ) :   0.8490 B( 18-C , 19-O ) :   2.1750 
B( 18-C , 20-O ) :   1.2397 B( 20-O , 21-H ) :   0.9275 

-------
TIMINGS
-------

Total SCF time: 0 days 0 hours 4 min 5 sec 

Total time                  ....     245.116 sec
Sum of individual times     ....     244.812 sec  ( 99.9%)

Fock matrix formation       ....     241.409 sec  ( 98.5%)
  XC integration            ....       9.509 sec  (  3.9% of F)
    Basis function eval.    ....       2.757 sec  ( 29.0% of XC)
    Density eval.           ....       1.812 sec  ( 19.1% of XC)
    XC-Functional eval.     ....       2.317 sec  ( 24.4% of XC)
    XC-Potential eval.      ....       2.350 sec  ( 24.7% of XC)
Diagonalization             ....       0.085 sec  (  0.0%)
Density matrix formation    ....       0.022 sec  (  0.0%)
Population analysis         ....       0.010 sec  (  0.0%)
Initial guess               ....       0.849 sec  (  0.3%)
Orbital Transformation      ....       0.000 sec  (  0.0%)
Orbital Orthonormalization  ....       0.000 sec  (  0.0%)
DIIS solution               ....       0.033 sec  (  0.0%)
SOSCF solution              ....       0.063 sec  (  0.0%)
Grid generation             ....       2.342 sec  (  1.0%)


-------------------------------------------------------------------------------
                          DFT DISPERSION CORRECTION                            
                                                                               
                              DFTD3 V3.1  Rev 1                                
                              USING zero damping                               
-------------------------------------------------------------------------------
The omegaB97X-D3 functional is recognized. Fit by Chai et al.
Active option DFTDOPT                   ...         3   

molecular C6(AA) [au] = 6968.340281 


            DFT-D V3
 parameters
 s6 scaling factor         :     1.0000 
 rs6 scaling factor        :     1.2810 
 s8 scaling factor         :     1.0000 
 rs8 scaling factor        :     1.0940 
 Damping factor alpha6     :    14.0000 
 Damping factor alpha8     :    16.0000 
 ad hoc parameters k1-k3   :    16.0000     1.3333    -4.0000 

 Edisp/kcal,au: -6.283096234785  -0.010012750125 
 E6   /kcal   :  -2.845072600 
 E8   /kcal   :  -3.438023635 
 % E8         :  54.718621305 

-------------------------   ----------------
Dispersion correction           -0.010012750
-------------------------   ----------------


-------------------------   --------------------
FINAL SINGLE POINT ENERGY      -886.769871518821
-------------------------   --------------------

------------------------------------------------------------------------------
                         ORCA SCF GRADIENT CALCULATION
------------------------------------------------------------------------------

Gradient of the Kohn-Sham DFT energy:
Kohn-Sham wavefunction type      ... RKS
Hartree-Fock exchange scaling    ...    0.196
Number of operators              ...    1
Number of atoms                  ...   26
Basis set dimensions             ...  274
Integral neglect threshold       ... 2.5e-11
Integral primitive cutoff        ... 2.5e-12

Nuclear repulsion gradient       ... done
One Electron Gradient            ... done
Pre-screening matrix             ... done
Starting the two electron gradient:
Two electron gradient done
Exchange-correlation gradient    ... done
Dispersion correction            ... done

------------------
CARTESIAN GRADIENT
------------------

   1   C   :   -0.003996554   -0.007210985   -0.005138700
   2   H   :    0.004994438    0.002099927   -0.001790456
   3   O   :   -0.006649110   -0.000469953    0.005141914
   4   C   :    0.008720901    0.001205569   -0.006234716
   5   C   :    0.005064858    0.002099609   -0.001271065
   6   C   :   -0.001498821   -0.004536616   -0.002332535
   7   C   :   -0.006119080   -0.002855834    0.004898467
   8   C   :    0.001678149    0.002446434    0.002379693
   9   C   :    0.001196147    0.001099368   -0.000046730
  10   H   :    0.004324596   -0.003208727   -0.008202955
  11   H   :   -0.004212552   -0.006946146   -0.005524773
  12   C   :   -0.001757662    0.003005266   -0.007188382
  13   H   :   -0.000094408   -0.003814443    0.001637698
  14   H   :   -0.001674309    0.000045615    0.003348591
  15   O   :    0.005884246   -0.002471669    0.004879674
  16   C   :   -0.003691034    0.022118754   -0.000842262
  17   F   :   -0.008893647   -0.008518736    0.000371849
  18   F   :   -0.000199698   -0.006790924   -0.007376885
  19   C   :    0.013781469   -0.006399408    0.009863593
  20   O   :   -0.001412072    0.002195800   -0.000750587
  21   O   :   -0.005313666   -0.006223770   -0.006924832
  22   H   :   -0.000213931    0.008333422    0.002955047
  23   H   :   -0.003892365    0.003789780    0.007641428
  24   H   :    0.004864745    0.006571126    0.004509655
  25   H   :   -0.002708289    0.005491372    0.000651125
  26   H   :    0.001817651   -0.001054833    0.005346147

Difference to translation invariance:
           :    0.0000000000    0.0000000000   -0.0000000000

Norm of the cartesian gradient     ...    0.0484136526
RMS gradient                       ...    0.0054817667
MAX gradient                       ...    0.0221187544

-------
TIMINGS
-------

Total SCF gradient time            ...       88.402 sec

One electron gradient       ....       0.329 sec  (  0.4%)
Prescreening matrices       ....       0.150 sec  (  0.2%)
Two electron gradient       ....      79.597 sec  ( 90.0%)
XC gradient                 ....       8.168 sec  (  9.2%)
------------------------------------------------------------------------------
                         ORCA GEOMETRY RELAXATION STEP
------------------------------------------------------------------------------

Reading the OPT-File                    .... done
Getting information on internals        .... done
Copying old internal coords+grads       .... done
Making the new internal coordinates     .... (new redundants).... done
Validating the new internal coordinates .... (new redundants).... done
Calculating the B-matrix                .... done
Calculating the G,G- and P matrices     .... done
Transforming gradient to internals      .... done
Projecting the internal gradient        .... done
Number of atoms                         ....  26
Number of internal coordinates          .... 117
Current Energy                          ....  -886.769871519 Eh
Current gradient norm                   ....     0.048413653 Eh/bohr
Maximum allowed component of the step   ....  0.300
Current trust radius                    ....  0.300
Evaluating the initial hessian          ....  (Almloef) done
Projecting the Hessian                  .... done
Forming the augmented Hessian           .... done
Diagonalizing the augmented Hessian     .... done
Last element of RFO vector              ....  0.988263738
Lowest eigenvalues of augmented Hessian:
 -0.004370048  0.007915034  0.012873504  0.015445646  0.016147823
Length of the computed step             ....  0.154571365
The final length of the internal step   ....  0.154571365
Converting the step to cartesian space:
 Initial RMS(Int)=    0.0142901277
Transforming coordinates:
 Iter   0:  RMS(Cart)=    0.0823323763 RMS(Int)=    0.5807140903
 Iter   1:  RMS(Cart)=    0.0019084073 RMS(Int)=    0.0009640899
 Iter   2:  RMS(Cart)=    0.0001077422 RMS(Int)=    0.0000339466
 Iter   3:  RMS(Cart)=    0.0000072187 RMS(Int)=    0.0000037055
 Iter   4:  RMS(Cart)=    0.0000003871 RMS(Int)=    0.0000001770
 Iter   5:  RMS(Cart)=    0.0000000291 RMS(Int)=    0.0000000159
done
Storing new coordinates                 .... done

                                .--------------------.
          ----------------------|Geometry convergence|-------------------------
          Item                value                   Tolerance       Converged
          ---------------------------------------------------------------------
          RMS gradient        0.0038994614            0.0001000000      NO
          MAX gradient        0.0118532626            0.0003000000      NO
          RMS step            0.0142901277            0.0020000000      NO
          MAX step            0.0616681377            0.0040000000      NO
          ........................................................
          Max(Bonds)      0.0142      Max(Angles)    1.78
          Max(Dihed)        3.53      Max(Improp)    0.00
          ---------------------------------------------------------------------

The optimization has not yet converged - more geometry cycles are needed


    ---------------------------------------------------------------------------
                         Redundant Internal Coordinates
                            (Angstroem and degrees)

        Definition                    Value    dE/dq     Step     New-Value
    ----------------------------------------------------------------------------
     1. B(H   1,C   0)                1.0888 -0.005371  0.0078    1.0965   
     2. B(O   2,C   0)                1.4082  0.000819 -0.0008    1.4073   
     3. B(C   3,O   2)                1.3569  0.007716 -0.0064    1.3505   
     4. B(C   4,C   3)                1.3910 -0.006143  0.0052    1.3961   
     5. B(C   5,C   4)                1.3837 -0.011206  0.0092    1.3930   
     6. B(C   6,C   5)                1.3859 -0.006636  0.0055    1.3914   
     7. B(C   7,C   6)                1.3924 -0.009520  0.0081    1.4005   
     8. B(C   8,C   7)                1.3760 -0.008894  0.0071    1.3831   
     9. B(C   8,C   3)                1.3975 -0.005695  0.0049    1.4024   
    10. B(H   9,C   8)                1.0783 -0.009800  0.0136    1.0919   
[...]
      px      :     0.931782
      py      :     0.896969
      dz2     :     0.005517  d :     0.035967
      dxz     :     0.007142
      dyz     :     0.004207
      dx2y2   :     0.009460
      dxy     :     0.009641
  8 C s       :     3.222099  s :     3.222099
      pz      :     0.979399  p :     2.794914
      px      :     0.882875
      py      :     0.932639
      dz2     :     0.003330  d :     0.032305
      dxz     :     0.005903
      dyz     :     0.004948
      dx2y2   :     0.008943
      dxy     :     0.009180
  9 H s       :     0.952713  s :     0.952713
      pz      :     0.007678  p :     0.023394
      px      :     0.007932
      py      :     0.007785
 10 H s       :     0.963048  s :     0.963048
      pz      :     0.004854  p :     0.023075
      px      :     0.004685
      py      :     0.013537
 11 C s       :     2.970392  s :     2.970392
      pz      :     0.913199  p :     2.702295
      px      :     0.832641
      py      :     0.956455
      dz2     :     0.010793  d :     0.057342
      dxz     :     0.013607
      dyz     :     0.006968
      dx2y2   :     0.014873
      dxy     :     0.011102
 12 H s       :     0.930046  s :     0.930046
      pz      :     0.003987  p :     0.021231
      px      :     0.003068
      py      :     0.014176
 13 H s       :     0.914782  s :     0.914782
      pz      :     0.014371  p :     0.022516
      px      :     0.003544
      py      :     0.004602
 14 O s       :     3.745077  s :     3.745077
      pz      :     1.602073  p :     4.637629
      px      :     1.427154
      py      :     1.608402
      dz2     :     0.002536  d :     0.015587
      dxz     :     0.004982
      dyz     :     0.003377
      dx2y2   :     0.002143
      dxy     :     0.002549
 15 C s       :     2.955876  s :     2.955876
      pz      :     0.844337  p :     2.426032
      px      :     0.811736
      py      :     0.769959
      dz2     :     0.023019  d :     0.171503
      dxz     :     0.039161
      dyz     :     0.042333
      dx2y2   :     0.029021
      dxy     :     0.037969
 16 F s       :     3.903722  s :     3.903722
      pz      :     1.739147  p :     5.290071
      px      :     1.833961
      py      :     1.716963
      dz2     :     0.001138  d :     0.007714
      dxz     :     0.001324
      dyz     :     0.002631
      dx2y2   :     0.001160
      dxy     :     0.001463
 17 F s       :     3.894737  s :     3.894737
      pz      :     1.755754  p :     5.275038
      px      :     1.762624
      py      :     1.756661
      dz2     :     0.001138  d :     0.008231
      dxz     :     0.001987
      dyz     :     0.001939
      dx2y2   :     0.001152
      dxy     :     0.002014
 18 C s       :     3.072875  s :     3.072875
      pz      :     0.842998  p :     2.619609
      px      :     0.909351
      py      :     0.867260
      dz2     :     0.028057  d :     0.142518
      dxz     :     0.050517
      dyz     :     0.021211
      dx2y2   :     0.019593
      dxy     :     0.023141
 19 O s       :     3.728881  s :     3.728881
      pz      :     1.710117  p :     4.439199
      px      :     1.330288
      py      :     1.398795
      dz2     :     0.002301  d :     0.020389
      dxz     :     0.004229
      dyz     :     0.001259
      dx2y2   :     0.006469
      dxy     :     0.006130
 20 O s       :     3.664023  s :     3.664023
      pz      :     1.473889  p :     4.490493
      px      :     1.366465
      py      :     1.650140
      dz2     :     0.005867  d :     0.014843
      dxz     :     0.002917
      dyz     :     0.002765
      dx2y2   :     0.000668
      dxy     :     0.002626
 21 H s       :     0.723346  s :     0.723346
      pz      :     0.014666  p :     0.072895
      px      :     0.034296
      py      :     0.023933
 22 H s       :     0.953328  s :     0.953328
      pz      :     0.007324  p :     0.023534
      px      :     0.007831
      py      :     0.008379
 23 H s       :     0.964851  s :     0.964851
      pz      :     0.005376  p :     0.023894
      px      :     0.004727
      py      :     0.013791
 24 H s       :     0.933829  s :     0.933829
      pz      :     0.006614  p :     0.022311
      px      :     0.006950
      py      :     0.008747
 25 H s       :     0.934088  s :     0.934088
      pz      :     0.014756  p :     0.022439
      px      :     0.004552
      py      :     0.003131


                     *******************************
                     * LOEWDIN POPULATION ANALYSIS *
                     *******************************

----------------------
LOEWDIN ATOMIC CHARGES
----------------------
   0 C :    0.070320
   1 H :    0.033495
   2 O :   -0.098555
   3 C :    0.060942
   4 C :   -0.080995
   5 C :   -0.004495
   6 C :   -0.087018
   7 C :   -0.011517
   8 C :   -0.051583
   9 H :    0.040083
  10 H :    0.033690
  11 C :    0.104581
  12 H :    0.032759
  13 H :    0.032656
  14 O :   -0.135408
  15 C :    0.113463
  16 F :   -0.085164
  17 F :   -0.064662
  18 C :    0.042682
  19 O :   -0.128884
  20 O :   -0.012924
  21 H :    0.091208
  22 H :    0.034206
  23 H :    0.033798
  24 H :    0.018907
  25 H :    0.018416

-------------------------------
LOEWDIN REDUCED ORBITAL CHARGES
-------------------------------
  0 C s       :     2.844938  s :     2.844938
      pz      :     1.071589  p :     2.960123
      px      :     1.037170
      py      :     0.851365
      dz2     :     0.027930  d :     0.124619
      dxz     :     0.011114
      dyz     :     0.024166
      dx2y2   :     0.032298
      dxy     :     0.029111
  1 H s       :     0.903499  s :     0.903499
      pz      :     0.016946  p :     0.063007
      px      :     0.038094
      py      :     0.007967
  2 O s       :     3.418760  s :     3.418760
      pz      :     1.739229  p :     4.647299
      px      :     1.423880
      py      :     1.484191
      dz2     :     0.003700  d :     0.032496
      dxz     :     0.006172
      dyz     :     0.004029
      dx2y2   :     0.012104
      dxy     :     0.006493
  3 C s       :     2.835194  s :     2.835194
      pz      :     0.966061  p :     2.925418
      px      :     0.894563
      py      :     1.064794
      dz2     :     0.021147  d :     0.178445
      dxz     :     0.037567
      dyz     :     0.020530
      dx2y2   :     0.053204
      dxy     :     0.045996
  4 C s       :     2.856005  s :     2.856005
      pz      :     1.042368  p :     3.138180
      px      :     1.056632
      py      :     1.039181
      dz2     :     0.009883  d :     0.086810
      dxz     :     0.016401
      dyz     :     0.010390
      dx2y2   :     0.023299
      dxy     :     0.026836
  5 C s       :     2.856690  s :     2.856690
      pz      :     0.974431  p :     3.055095
      px      :     1.039180
      py      :     1.041484
      dz2     :     0.007301  d :     0.092711
      dxz     :     0.015192
      dyz     :     0.014741
      dx2y2   :     0.026279
      dxy     :     0.029198
  6 C s       :     2.848820  s :     2.848820
      pz      :     1.034079  p :     3.132476
      px      :     1.027385
      py      :     1.071012
      dz2     :     0.012303  d :     0.105722
      dxz     :     0.015031
      dyz     :     0.016747
      dx2y2   :     0.031112
      dxy     :     0.030529
  7 C s       :     2.857359  s :     2.857359
      pz      :     0.981299  p :     3.061034
      px      :     1.049413
      py      :     1.030321
      dz2     :     0.012008  d :     0.093125
      dxz     :     0.017933
      dyz     :     0.010222
      dx2y2   :     0.026418
      dxy     :     0.026544
  8 C s       :     2.859138  s :     2.859138
      pz      :     1.020225  p :     3.106417
      px      :     1.050285
      py      :     1.035908
      dz2     :     0.007422  d :     0.086028
      dxz     :     0.014281
      dyz     :     0.012103
      dx2y2   :     0.025427
      dxy     :     0.026794
  9 H s       :     0.890899  s :     0.890899
      pz      :     0.022825  p :     0.069018
      px      :     0.022742
      py      :     0.023450
 10 H s       :     0.899574  s :     0.899574
      pz      :     0.014797  p :     0.066736
      px      :     0.014350
      py      :     0.037589
 11 C s       :     2.842530  s :     2.842530
      pz      :     0.987039  p :     2.919906
      px      :     0.926518
      py      :     1.006349
      dz2     :     0.028006  d :     0.132983
      dxz     :     0.029970
      dyz     :     0.014514
      dx2y2   :     0.036580
      dxy     :     0.023913
 12 H s       :     0.902725  s :     0.902725
      pz      :     0.011235  p :     0.064516
      px      :     0.010579
      py      :     0.042701
 13 H s       :     0.899407  s :     0.899407
      pz      :     0.042913  p :     0.067937
      px      :     0.011970
      py      :     0.013054
 14 O s       :     3.440413  s :     3.440413
      pz      :     1.616075  p :     4.665313
      px      :     1.438975
      py      :     1.610263
      dz2     :     0.004219  d :     0.029682
      dxz     :     0.009270
      dyz     :     0.005832
      dx2y2   :     0.003952
      dxy     :     0.006408
 15 C s       :     2.853477  s :     2.853477
      pz      :     0.912790  p :     2.669489
      px      :     0.896826
      py      :     0.859874
      dz2     :     0.041693  d :     0.363571
      dxz     :     0.088811
      dyz     :     0.095022
      dx2y2   :     0.053644
      dxy     :     0.084401
 16 F s       :     3.738926  s :     3.738926
      pz      :     1.757723  p :     5.333919
      px      :     1.841039
      py      :     1.735157
      dz2     :     0.001516  d :     0.012319
      dxz     :     0.002126
      dyz     :     0.004582
      dx2y2   :     0.001741
      dxy     :     0.002354
 17 F s       :     3.729259  s :     3.729259
      pz      :     1.772277  p :     5.322255
      px      :     1.776714
      py      :     1.773265
      dz2     :     0.001468  d :     0.013147
      dxz     :     0.003392
      dyz     :     0.003308
      dx2y2   :     0.001605
      dxy     :     0.003374
 18 C s       :     2.859618  s :     2.859618
      pz      :     0.931317  p :     2.789005
      px      :     0.985432
      py      :     0.872255
      dz2     :     0.062848  d :     0.308695
      dxz     :     0.114591
      dyz     :     0.043031
      dx2y2   :     0.039773
      dxy     :     0.048453
 19 O s       :     3.533875  s :     3.533875
      pz      :     1.704106  p :     4.561268
      px      :     1.441809
      py      :     1.415352
      dz2     :     0.004511  d :     0.033741
      dxz     :     0.006626
      dyz     :     0.001801
      dx2y2   :     0.010074
      dxy     :     0.010729
 20 O s       :     3.411337  s :     3.411337
      pz      :     1.517727  p :     4.573022
      px      :     1.413923
      py      :     1.641371
      dz2     :     0.011640  d :     0.028565
      dxz     :     0.005966
      dyz     :     0.003528
      dx2y2   :     0.001437
      dxy     :     0.005994
 21 H s       :     0.722663  s :     0.722663
      pz      :     0.037447  p :     0.186129
      px      :     0.084205
      py      :     0.064477
 22 H s       :     0.897835  s :     0.897835
      pz      :     0.021289  p :     0.067959
      px      :     0.022326
      py      :     0.024344
 23 H s       :     0.895566  s :     0.895566
      pz      :     0.017146  p :     0.070636
      px      :     0.015079
      py      :     0.038411
 24 H s       :     0.916671  s :     0.916671
      pz      :     0.017364  p :     0.064422
      px      :     0.019765
      py      :     0.027293
 25 H s       :     0.917103  s :     0.917103
      pz      :     0.042797  p :     0.064481
      px      :     0.012122
      py      :     0.009562


                      *****************************
                      * MAYER POPULATION ANALYSIS *
                      *****************************

  NA   - Mulliken gross atomic population
  ZA   - Total nuclear charge
  QA   - Mulliken gross atomic charge
  VA   - Mayer's total valence
  BVA  - Mayer's bonded valence
  FA   - Mayer's free valence

  ATOM       NA         ZA         QA         VA         BVA        FA
  0 C      5.8791     6.0000     0.1209     3.9165     3.9165     0.0000
  1 H      0.9377     1.0000     0.0623     0.9903     0.9903    -0.0000
  2 O      8.3254     8.0000    -0.3254     2.1872     2.1872    -0.0000
  3 C      5.7682     6.0000     0.2318     3.8966     3.8966     0.0000
  4 C      6.1157     6.0000    -0.1157     3.8477     3.8477    -0.0000
  5 C      6.0260     6.0000    -0.0260     3.9081     3.9081    -0.0000
  6 C      6.1036     6.0000    -0.1036     3.9083     3.9083     0.0000
  7 C      6.0155     6.0000    -0.0155     3.8860     3.8860     0.0000
  8 C      6.0493     6.0000    -0.0493     3.8803     3.8803    -0.0000
  9 H      0.9761     1.0000     0.0239     1.0002     1.0002     0.0000
 10 H      0.9861     1.0000     0.0139     0.9933     0.9933    -0.0000
 11 C      5.7300     6.0000     0.2700     3.8706     3.8706     0.0000
 12 H      0.9513     1.0000     0.0487     0.9950     0.9950    -0.0000
 13 H      0.9373     1.0000     0.0627     1.0037     1.0037     0.0000
 14 O      8.3983     8.0000    -0.3983     2.0727     2.0727    -0.0000
 15 C      5.5534     6.0000     0.4466     4.2467     4.2467    -0.0000
 16 F      9.2015     9.0000    -0.2015     1.1409     1.1409    -0.0000
 17 F      9.1780     9.0000    -0.1780     1.1721     1.1721     0.0000
 18 C      5.8350     6.0000     0.1650     4.3251     4.3251     0.0000
 19 O      8.1885     8.0000    -0.1885     2.3118     2.3118    -0.0000
 20 O      8.1694     8.0000    -0.1694     2.2743     2.2743     0.0000
 21 H      0.7962     1.0000     0.2038     1.0314     1.0314    -0.0000
 22 H      0.9769     1.0000     0.0231     1.0094     1.0094    -0.0000
 23 H      0.9887     1.0000     0.0113     1.0013     1.0013    -0.0000
 24 H      0.9561     1.0000     0.0439     0.9850     0.9850    -0.0000
 25 H      0.9565     1.0000     0.0435     0.9848     0.9848    -0.0000

  Mayer bond orders larger than 0.100000
B(  0-C ,  1-H ) :   0.9799 B(  0-C ,  2-O ) :   0.9514 B(  0-C , 24-H ) :   0.9699 
B(  0-C , 25-H ) :   0.9700 B(  2-O ,  3-C ) :   1.1368 B(  3-C ,  4-C ) :   1.3113 
B(  3-C ,  8-C ) :   1.3618 B(  4-C ,  5-C ) :   1.3854 B(  4-C , 23-H ) :   0.9959 
B(  5-C ,  6-C ) :   1.3995 B(  5-C , 22-H ) :   0.9887 B(  6-C ,  7-C ) :   1.3735 
B(  6-C , 11-C ) :   1.0449 B(  7-C ,  8-C ) :   1.4186 B(  7-C , 10-H ) :   0.9892 
B(  8-C ,  9-H ) :   0.9936 B( 11-C , 12-H ) :   0.9509 B( 11-C , 13-H ) :   0.9402 
B( 11-C , 14-O ) :   0.8499 B( 14-O , 15-C ) :   1.1416 B( 15-C , 16-F ) :   1.0547 
B( 15-C , 17-F ) :   1.1175 B( 15-C , 18-C ) :   0.8559 B( 18-C , 19-O ) :   2.1701 
B( 18-C , 20-O ) :   1.2415 B( 20-O , 21-H ) :   0.9297 

-------
TIMINGS
-------

Total SCF time: 0 days 0 hours 2 min 4 sec 

Total time                  ....     124.322 sec
Sum of individual times     ....     124.042 sec  ( 99.8%)

Fock matrix formation       ....     121.608 sec  ( 97.8%)
  XC integration            ....       5.971 sec  (  4.9% of F)
    Basis function eval.    ....       1.757 sec  ( 29.4% of XC)
    Density eval.           ....       1.132 sec  ( 19.0% of XC)
    XC-Functional eval.     ....       1.538 sec  ( 25.8% of XC)
    XC-Potential eval.      ....       1.370 sec  ( 22.9% of XC)
Diagonalization             ....       0.013 sec  (  0.0%)
Density matrix formation    ....       0.013 sec  (  0.0%)
Population analysis         ....       0.010 sec  (  0.0%)
Initial guess               ....       0.012 sec  (  0.0%)
Orbital Transformation      ....       0.000 sec  (  0.0%)
Orbital Orthonormalization  ....       0.008 sec  (  0.0%)
DIIS solution               ....       0.004 sec  (  0.0%)
SOSCF solution              ....       0.058 sec  (  0.0%)
Grid generation             ....       2.324 sec  (  1.9%)


-------------------------------------------------------------------------------
                          DFT DISPERSION CORRECTION                            
                                                                               
                              DFTD3 V3.1  Rev 1                                
                              USING zero damping                               
-------------------------------------------------------------------------------
The omegaB97X-D3 functional is recognized. Fit by Chai et al.
Active option DFTDOPT                   ...         3   

molecular C6(AA) [au] = 6973.547482 


            DFT-D V3
 parameters
 s6 scaling factor         :     1.0000 
 rs6 scaling factor        :     1.2810 
 s8 scaling factor         :     1.0000 
 rs8 scaling factor        :     1.0940 
 Damping factor alpha6     :    14.0000 
 Damping factor alpha8     :    16.0000 
 ad hoc parameters k1-k3   :    16.0000     1.3333    -4.0000 

 Edisp/kcal,au: -6.033604104661  -0.009615159150 
 E6   /kcal   :  -2.683181894 
 E8   /kcal   :  -3.350422211 
 % E8         :  55.529367731 

-------------------------   ----------------
Dispersion correction           -0.009615159
-------------------------   ----------------


-------------------------   --------------------
FINAL SINGLE POINT ENERGY      -886.774263996566
-------------------------   --------------------

                                *** OPTIMIZATION RUN DONE ***

                            ***************************************
                            *     ORCA property calculations      *
                            ***************************************

                                    ---------------------
                                    Active property flags
                                    ---------------------
   (+) Dipole Moment


------------------------------------------------------------------------------
                       ORCA ELECTRIC PROPERTIES CALCULATION
------------------------------------------------------------------------------

Dipole Moment Calculation                       ... on
Quadrupole Moment Calculation                   ... off
Polarizability Calculation                      ... off
GBWName                                         ... 043651898.gbw
Electron density file                           ... 043651898.scfp
The origin for moment calculation is the CENTER OF MASS  = ( 0.224593,  0.168779 -0.286960)

-------------
DIPOLE MOMENT
-------------
                                X             Y             Z
Electronic contribution:     22.45917       0.01826      -3.57564
Nuclear contribution   :    -24.74705       0.45818       3.48898
                        -----------------------------------------
Total Dipole Moment    :     -2.28789       0.47645      -0.08666
                        -----------------------------------------
Magnitude (a.u.)       :      2.33857
Magnitude (Debye)      :      5.94418



--------------------
Rotational spectrum 
--------------------
 
Rotational constants in cm-1:     0.042003     0.007333     0.007029 
Rotational constants in MHz :  1259.232578   219.841964   210.737108 

 Dipole components along the rotational axes: 
x,y,z [a.u.] :     2.289669    -0.456464     0.134120 
x,y,z [Debye]:     5.819875    -1.160239     0.340905 

 

Timings for individual modules:

Sum of individual times         ...     6778.183 sec (= 112.970 min)
GTO integral calculation        ...        8.494 sec (=   0.142 min)   0.1 %
SCF iterations                  ...     4564.133 sec (=  76.069 min)  67.3 %
SCF Gradient evaluation         ...     2201.842 sec (=  36.697 min)  32.5 %
Geometry relaxation             ...        3.714 sec (=   0.062 min)   0.1 %
                             ****ORCA TERMINATED NORMALLY****
TOTAL RUN TIME: 0 days 1 hours 53 minutes 2 seconds 139 msec
