
                                 *****************
                                 * O   R   C   A *
                                 *****************

           --- An Ab Initio, DFT and Semiempirical electronic structure package ---

                  #######################################################
                  #                        -***-                        #
                  #          Department of theory and spectroscopy      #
                  #               Directorship: Frank Neese             #
                  #        Max Planck Institute fuer Kohlenforschung    #
                  #                Kaiser Wilhelm Platz 1               #
                  #                 D-45470 Muelheim/Ruhr               #
                  #                      Germany                        #
                  #                                                     #
                  #                  All rights reserved                #
                  #                        -***-                        #
                  #######################################################


                         Program Version 4.2.0 -  RELEASE  -


 With contributions from (in alphabetic order):
   Daniel Aravena         : Magnetic Suceptibility
   Michael Atanasov       : Ab Initio Ligand Field Theory (pilot matlab implementation)
   Alexander A. Auer      : GIAO ZORA, VPT2
   Ute Becker             : Parallelization
   Giovanni Bistoni       : ED, misc. LED, open-shell LED, HFLED
   Martin Brehm           : Molecular dynamics
   Dmytro Bykov           : SCF Hessian
   Vijay G. Chilkuri      : MRCI spin determinant printing, contributions to CSF-ICE
   Dipayan Datta          : RHF DLPNO-CCSD density
   Achintya Kumar Dutta   : EOM-CC, STEOM-CC
   Dmitry Ganyushin       : Spin-Orbit,Spin-Spin,Magnetic field MRCI
   Miquel Garcia          : C-PCM Hessian, Gaussian charge scheme
   Yang Guo               : DLPNO-NEVPT2, CIM, IAO-localization
   Andreas Hansen         : Spin unrestricted coupled pair/coupled cluster methods
   Benjamin Helmich-Paris : CASSCF linear response (MC-RPA)
   Lee Huntington         : MR-EOM, pCC
   Robert Izsak           : Overlap fitted RIJCOSX, COSX-SCS-MP3, EOM
   Christian Kollmar      : KDIIS, OOCD, Brueckner-CCSD(T), CCSD density
   Simone Kossmann        : Meta GGA functionals, TD-DFT gradient, OOMP2, MP2 Hessian
   Martin Krupicka        : AUTO-CI
   Lucas Lang             : DCDCAS
   Dagmar Lenk            : GEPOL surface, SMD
   Dimitrios Liakos       : Extrapolation schemes; Compound Job, initial MDCI parallelization
   Dimitrios Manganas     : Further ROCIS development; embedding schemes
   Dimitrios Pantazis     : SARC Basis sets
   Taras Petrenko         : DFT Hessian,TD-DFT gradient, ASA, ECA, R-Raman, ABS, FL, XAS/XES, NRVS
   Peter Pinski           : DLPNO-MP2, DLPNO-MP2 Gradient
   Christoph Reimann      : Effective Core Potentials
   Marius Retegan         : Local ZFS, SOC
   Christoph Riplinger    : Optimizer, TS searches, QM/MM, DLPNO-CCSD(T), (RO)-DLPNO pert. Triples
   Tobias Risthaus        : Range-separated hybrids, TD-DFT gradient, RPA, STAB
   Michael Roemelt        : Original ROCIS implementation
   Masaaki Saitow         : Open-shell DLPNO-CCSD energy and density
   Barbara Sandhoefer     : DKH picture change effects
   Avijit Sen             : IP-ROCIS
   Kantharuban Sivalingam : CASSCF convergence, NEVPT2, FIC-MRCI
   Bernardo de Souza      : ESD, SOC TD-DFT
   Georgi Stoychev        : AutoAux, RI-MP2 NMR
   Willem Van den Heuvel  : Paramagnetic NMR
   Boris Wezisla          : Elementary symmetry handling
   Frank Wennmohs         : Technical directorship


 We gratefully acknowledge several colleagues who have allowed us to
 interface, adapt or use parts of their codes:
   Stefan Grimme, W. Hujo, H. Kruse,             : VdW corrections, initial TS optimization,
                  C. Bannwarth                     DFT functionals, gCP, sTDA/sTD-DF
   Ed Valeev, F. Pavosevic, A. Kumar             : LibInt (2-el integral package), F12 methods
   Garnet Chan, S. Sharma, J. Yang, R. Olivares  : DMRG
   Ulf Ekstrom                                   : XCFun DFT Library
   Mihaly Kallay                                 : mrcc  (arbitrary order and MRCC methods)
   Andreas Klamt, Michael Diedenhofen            : otool_cosmo (COSMO solvation model)
   Jiri Pittner, Ondrej Demel                    : Mk-CCSD
   Frank Weinhold                                : gennbo (NPA and NBO analysis)
   Christopher J. Cramer and Donald G. Truhlar   : smd solvation model
   Lars Goerigk                                  : TD-DFT with DH, B97 family of functionals
   V. Asgeirsson, H. Jonsson                     : NEB implementation
   FAccTs GmbH                                   : IRC, NEB, NEB-TS, Multilevel, MM, QM/MM, CI optimization
   S Lehtola, MJT Oliveira, MAL Marques          : LibXC Library


 Your calculation uses the libint2 library for the computation of 2-el integrals
 For citations please refer to: http://libint.valeyev.net

 Your ORCA version has been built with support for libXC version: 4.2.3
 For citations please refer to: https://tddft.org/programs/libxc/

 This ORCA versions uses:
   CBLAS   interface :  Fast vector & matrix operations
   LAPACKE interface :  Fast linear algebra routines
   SCALAPACK package :  Parallel linear algebra routines


Your calculation utilizes the atom-pairwise dispersion correction
with the zero-damping scheme (D30)
Cite in your paper:
S.Grimme, J.Antony, S.Ehrlich and H.Krieg, J.Chem.Phys., 132, (2010), 154104 
   

XCFun DFT library Copyright 2009-2010 Ulf Ekstrom and contributors.
See http://admol.org/xcfun for more information. This is free soft-
ware; see the source code for copying conditions. There is ABSOLUTELY
NO WARRANTY; not even for MERCHANTABILITY or FITNESS FOR A PARTICULAR
PURPOSE. For details see the documentation. Scientific users of this 
library should cite U. Ekstrom, L. Visscher, R. Bast, A. J. Thorvald-
sen and K. Ruud; J.Chem.Theor.Comp. 2010, DOI: 10.1021/ct100117s
XCFun Version 0.99 
----- Orbital basis set information -----
Your calculation utilizes the basis: def2-SVP
   F. Weigend and R. Ahlrichs, Phys. Chem. Chem. Phys. 7, 3297 (2005).

================================================================================
                                        WARNINGS
                       Please study these warnings very carefully!
================================================================================


WARNING: Geometry Optimization
  ===> : Switching off AutoStart
         For restart on a previous wavefunction, please use MOREAD

INFO   : the flag for use of LIBINT has been found!

================================================================================
                                       INPUT FILE
================================================================================
NAME = 044477899.inp
|  1> # ORCA input file
|  2> # -46.02442726
|  3> ! wB97X-D3 def2-SVP Opt
|  4> * xyz 0 1
|  5>    C       -3.78990        -0.55050         0.19030
|  6>    C       -2.97140        -1.08830        -0.78800
|  7>    C       -1.77730        -0.46830        -1.11470
|  8>    C       -1.39820         0.70060        -0.46940
|  9>    C       -2.22140         1.23380         0.51430
| 10>    C       -3.41150         0.61060         0.84340
| 11>    H       -4.04500         1.03100         1.61060
| 12>    H       -1.92160         2.13720         1.02500
| 13>    C       -0.08640         1.36440        -0.78890
| 14>    O        0.75060         1.22560         0.35130
| 15>    C        2.02340         1.82470         0.24750
| 16>    C        3.03460         0.96830        -0.52090
| 17>    C        3.05960        -0.45390         0.04590
| 18>    C        1.77640        -1.17560        -0.30750
| 19>    O        1.39910        -1.30030        -1.44820
| 20>    C        1.00340        -1.77850         0.85600
| 21>    O        1.08270        -1.03100         2.03800
| 22>    H        0.76730        -0.13900         1.82570
| 23>    H        1.44610        -2.75770         1.07430
| 24>    H       -0.03890        -1.93310         0.54320
| 25>    H        3.88000        -1.00790        -0.41580
| 26>    H        3.19630        -0.43920         1.12700
| 27>    H        4.01850         1.43090        -0.43660
| 28>    H        2.76520         0.92170        -1.57780
| 29>    H        2.36190         1.94690         1.28150
| 30>    H        1.93990         2.81780        -0.21500
| 31>    H        0.36990         0.89120        -1.66680
| 32>    H       -0.23340         2.43540        -1.00040
| 33>    H       -1.12940        -0.89620        -1.86530
| 34>    H       -3.26020        -1.99690        -1.29560
| 35>    H       -4.71980        -1.03670         0.44630
| 36> *
| 37> 
| 38>                          ****END OF INPUT****
================================================================================

                       *****************************
                       * Geometry Optimization Run *
                       *****************************

Geometry optimization settings:
Update method            Update   .... BFGS
Choice of coordinates    CoordSys .... Z-matrix Internals
Initial Hessian          InHess   .... Almoef's Model

Convergence Tolerances:
Energy Change            TolE     ....  5.0000e-06 Eh
Max. Gradient            TolMAXG  ....  3.0000e-04 Eh/bohr
RMS Gradient             TolRMSG  ....  1.0000e-04 Eh/bohr
Max. Displacement        TolMAXD  ....  4.0000e-03 bohr
RMS Displacement         TolRMSD  ....  2.0000e-03 bohr
Strict Convergence                ....  False
------------------------------------------------------------------------------
                        ORCA OPTIMIZATION COORDINATE SETUP
------------------------------------------------------------------------------

The optimization will be done in new redundant internal coordinates
Making redundant internal coordinates   ...  (new redundants) done
Evaluating the initial hessian          ...  (Almloef) done
Evaluating the coordinates              ...  done
Calculating the B-matrix                .... done
Calculating the G-matrix                .... done
Diagonalizing the G-matrix              .... done
Small eigenvalue found = 3.738e-03
Small eigenvalue found = 6.466e-03
Small eigenvalue found = 1.575e-02
Small eigenvalue found = 2.403e-02
Small eigenvalue found = 2.929e-02
The first mode is                       ....   67
The number of degrees of freedom        ....   87

    -----------------------------------------------------------------
                    Redundant Internal Coordinates


    -----------------------------------------------------------------
         Definition                    Initial Value    Approx d2E/dq
    -----------------------------------------------------------------
      1. B(C   1,C   0)                  1.3843         0.638055   
      2. B(C   2,C   1)                  1.3846         0.637407   
      3. B(C   3,C   2)                  1.3880         0.629477   
      4. B(C   4,C   3)                  1.3891         0.626843   
      5. B(C   5,C   4)                  1.3831         0.640787   
      6. B(C   5,C   0)                  1.3849         0.636671   
      7. B(H   6,C   5)                  1.0801         0.373413   
      8. B(H   7,C   4)                  1.0802         0.373304   
      9. B(C   8,C   3)                  1.5045         0.410257   
     10. B(O   9,C   8)                  1.4212         0.498945   
     11. B(C  10,O   9)                  1.4106         0.518864   
     12. B(C  11,C  10)                  1.5318         0.371124   
     13. B(C  12,C  11)                  1.5312         0.371946   
     14. B(C  13,C  12)                  1.5140         0.396119   
     15. B(O  14,C  13)                  1.2079         1.092325   
     16. B(C  15,C  13)                  1.5214         0.385523   
     17. B(O  16,C  15)                  1.4008         0.537880   
     18. B(H  17,O  16)                  0.9696         0.501855   
     19. B(H  17,H   7)                  3.6128         0.000007   
     20. B(H  18,C  15)                  1.0966         0.351510   
     21. B(H  19,C  15)                  1.0992         0.348195   
     22. B(H  20,C  12)                  1.0923         0.357058   
     23. B(H  21,C  12)                  1.0898         0.360355   
     24. B(H  22,C  11)                  1.0905         0.359455   
     25. B(H  23,C  11)                  1.0917         0.357872   
     26. B(H  24,C  10)                  1.0948         0.353756   
     27. B(H  25,C  10)                  1.0987         0.348782   
     28. B(H  26,C   8)                  1.0967         0.351295   
     29. B(H  27,C   8)                  1.1015         0.345158   
     30. B(H  28,C   2)                  1.0799         0.373655   
     31. B(H  29,C   1)                  1.0801         0.373437   
     32. B(H  30,C   0)                  1.0801         0.373422   
     33. A(C   1,C   0,C   5)          119.8316         0.438407   
     34. A(C   5,C   0,H  30)          120.0574         0.356691   
     35. A(C   1,C   0,H  30)          120.1106         0.356822   
     36. A(C   0,C   1,H  29)          120.0560         0.356825   
     37. A(C   0,C   1,C   2)          120.1808         0.438499   
     38. A(C   2,C   1,H  29)          119.7624         0.356763   
     39. A(C   1,C   2,H  28)          120.2640         0.356798   
     40. A(C   1,C   2,C   3)          120.1971         0.437430   
     41. A(C   3,C   2,H  28)          119.5356         0.356041   
     42. A(C   4,C   3,C   8)          119.8503         0.404058   
     43. A(C   2,C   3,C   8)          120.7296         0.404357   
     44. A(C   2,C   3,C   4)          119.3823         0.436114   
     45. A(C   5,C   4,H   7)          120.2083         0.357062   
     46. A(C   3,C   4,C   5)          120.3616         0.437516   
     47. A(C   3,C   4,H   7)          119.4292         0.355731   
     48. A(C   0,C   5,C   4)          120.0439         0.438745   
     49. A(C   4,C   5,H   6)          119.8873         0.357080   
     50. A(C   0,C   5,H   6)          120.0688         0.356689   
     51. A(C   3,C   8,O   9)          107.4597         0.385736   
     52. A(O   9,C   8,H  27)          109.1223         0.335801   
     53. A(C   3,C   8,H  27)          110.6951         0.327066   
     54. A(O   9,C   8,H  26)          110.7948         0.336788   
     55. A(C   3,C   8,H  26)          110.0223         0.328018   
     56. A(H  26,C   8,H  27)          108.7433         0.287796   
     57. A(C   8,O   9,C  10)          115.5241         0.399362   
     58. A(O   9,C  10,C  11)          113.2737         0.381661   
     59. A(C  11,C  10,H  24)          109.3939         0.323025   
     60. A(H  24,C  10,H  25)          108.6734         0.288581   
     61. A(C  11,C  10,H  25)          110.1425         0.322276   
     62. A(O   9,C  10,H  25)          110.2613         0.338587   
     63. A(O   9,C  10,H  24)          104.8854         0.339388   
     64. A(H  22,C  11,H  23)          108.3972         0.290474   
     65. A(C  12,C  11,H  23)          108.8296         0.323756   
     66. A(C  10,C  11,H  23)          110.2800         0.323639   
     67. A(C  12,C  11,H  22)          110.5284         0.323991   
     68. A(C  10,C  11,H  22)          108.6428         0.323873   
     69. A(C  10,C  11,C  12)          110.1438         0.362672   
     70. A(C  13,C  12,H  21)          110.1384         0.327499   
     71. A(C  11,C  12,H  21)          110.8996         0.324124   
     72. A(C  13,C  12,H  20)          107.2256         0.327003   
     73. A(C  11,C  12,H  20)          109.0795         0.323635   
     74. A(C  11,C  12,C  13)          110.0292         0.366740   
     75. A(H  20,C  12,H  21)          109.3863         0.290485   
     76. A(O  14,C  13,C  15)          121.5047         0.438366   
     77. A(C  12,C  13,C  15)          116.1675         0.369002   
     78. A(C  12,C  13,O  14)          122.3004         0.440517   
     79. A(H  18,C  15,H  19)          108.2936         0.288218   
     80. A(O  16,C  15,H  19)          111.6464         0.340533   
     81. A(C  13,C  15,H  19)          108.6569         0.324205   
     82. A(O  16,C  15,H  18)          106.5994         0.341073   
     83. A(C  13,C  15,H  18)          107.5166         0.324710   
     84. A(C  13,C  15,O  16)          113.8959         0.386608   
     85. A(C  15,O  16,H  17)          106.7225         0.359045   
     86. D(H  29,C   1,C   0,C   5)    179.6409         0.028274   
     87. D(H  29,C   1,C   0,H  30)     -0.1520         0.028274   
     88. D(C   2,C   1,C   0,C   5)     -0.0271         0.028274   
     89. D(C   2,C   1,C   0,H  30)   -179.8200         0.028274   
     90. D(C   3,C   2,C   1,H  29)    179.9129         0.028213   
     91. D(C   3,C   2,C   1,C   0)     -0.4181         0.028213   
     92. D(H  28,C   2,C   1,C   0)    178.9125         0.028213   
     93. D(H  28,C   2,C   1,H  29)     -0.7565         0.028213   
     94. D(C   8,C   3,C   2,C   1)    178.3668         0.027471   
     95. D(C   8,C   3,C   2,H  28)     -0.9687         0.027471   
     96. D(C   4,C   3,C   2,H  28)   -178.7310         0.027471   
     97. D(C   4,C   3,C   2,C   1)      0.6045         0.027471   
     98. D(C   5,C   4,C   3,C   8)   -178.1338         0.027227   
     99. D(H   7,C   4,C   3,C   8)      1.5136         0.027227   
    100. D(H   7,C   4,C   3,C   2)    179.2959         0.027227   
    101. D(C   5,C   4,C   3,C   2)     -0.3515         0.027227   
    102. D(H   6,C   5,C   4,H   7)      0.2585         0.028533   
    103. D(H   6,C   5,C   0,H  30)      0.0805         0.028144   
    104. D(C   0,C   5,C   4,H   7)   -179.7345         0.028533   
    105. D(C   0,C   5,C   4,C   3)     -0.0899         0.028533   
    106. D(H   6,C   5,C   0,C   1)   -179.7125         0.028144   
    107. D(H   6,C   5,C   4,C   3)    179.9031         0.028533   
    108. D(C   4,C   5,C   0,H  30)   -179.9266         0.028144   
    109. D(C   4,C   5,C   0,C   1)      0.2804         0.028144   
    110. D(H  27,C   8,C   3,C   4)    -52.6522         0.012465   
    111. D(H  27,C   8,C   3,C   2)    129.5959         0.012465   
    112. D(H  26,C   8,C   3,C   4)   -172.8678         0.012465   
    113. D(O   9,C   8,C   3,C   2)   -111.3319         0.012465   
    114. D(O   9,C   8,C   3,C   4)     66.4200         0.012465   
    115. D(H  26,C   8,C   3,C   2)      9.3803         0.012465   
    116. D(C  10,O   9,C   8,C   3)   -178.3926         0.019678   
    117. D(C  10,O   9,C   8,H  27)    -58.3165         0.019678   
    118. D(C  10,O   9,C   8,H  26)     61.3838         0.019678   
    119. D(H  25,C  10,O   9,C   8)     42.9176         0.021341   
    120. D(H  24,C  10,O   9,C   8)    159.7423         0.021341   
    121. D(C  11,C  10,O   9,C   8)    -81.0251         0.021341   
    122. D(H  23,C  11,C  10,H  25)    -54.8447         0.011006   
    123. D(H  23,C  11,C  10,H  24)   -174.2292         0.011006   
    124. D(H  23,C  11,C  10,O   9)     69.1628         0.011006   
    125. D(H  22,C  11,C  10,H  25)     63.8247         0.011006   
    126. D(H  22,C  11,C  10,H  24)    -55.5599         0.011006   
    127. D(H  22,C  11,C  10,O   9)   -172.1678         0.011006   
    128. D(C  12,C  11,C  10,H  25)   -174.9802         0.011006   
    129. D(C  12,C  11,C  10,H  24)     65.6353         0.011006   
    130. D(C  12,C  11,C  10,O   9)    -50.9727         0.011006   
    131. D(H  21,C  12,C  11,H  23)   -172.5720         0.011052   
    132. D(H  21,C  12,C  11,H  22)     68.4976         0.011052   
    133. D(H  21,C  12,C  11,C  10)    -51.5643         0.011052   
    134. D(H  20,C  12,C  11,H  23)     66.8945         0.011052   
    135. D(H  20,C  12,C  11,H  22)    -52.0359         0.011052   
    136. D(H  20,C  12,C  11,C  10)   -172.0979         0.011052   
    137. D(C  13,C  12,C  11,H  23)    -50.4675         0.011052   
    138. D(C  13,C  12,C  11,H  22)   -169.3979         0.011052   
    139. D(C  13,C  12,C  11,C  10)     70.5401         0.011052   
    140. D(C  15,C  13,C  12,H  21)     -3.1250         0.011655   
    141. D(C  15,C  13,C  12,H  20)    115.8121         0.011655   
    142. D(C  15,C  13,C  12,C  11)   -125.6796         0.011655   
    143. D(O  14,C  13,C  12,H  21)    178.7526         0.011655   
    144. D(O  14,C  13,C  12,H  20)    -62.3103         0.011655   
    145. D(O  14,C  13,C  12,C  11)     56.1980         0.011655   
    146. D(H  18,C  15,C  13,C  12)    -83.5796         0.011072   
    147. D(O  16,C  15,C  13,O  14)   -147.5696         0.011072   
    148. D(O  16,C  15,C  13,C  12)     34.2919         0.011072   
    149. D(H  19,C  15,C  13,O  14)    -22.4396         0.011072   
    150. D(H  19,C  15,C  13,C  12)    159.4218         0.011072   
    151. D(H  18,C  15,C  13,O  14)     94.5590         0.011072   
    152. D(H  17,O  16,C  15,H  19)    -67.0217         0.023007   
    153. D(H  17,O  16,C  15,H  18)    174.8990         0.023007   
    154. D(H  17,O  16,C  15,C  13)     56.5013         0.023007   
    -----------------------------------------------------------------

Number of atoms                         .... 31
Number of degrees of freedom            .... 154

         *************************************************************
         *                GEOMETRY OPTIMIZATION CYCLE   1            *
         *************************************************************
---------------------------------
CARTESIAN COORDINATES (ANGSTROEM)
---------------------------------
  C     -3.789900   -0.550500    0.190300
  C     -2.971400   -1.088300   -0.788000
  C     -1.777300   -0.468300   -1.114700
  C     -1.398200    0.700600   -0.469400
  C     -2.221400    1.233800    0.514300
  C     -3.411500    0.610600    0.843400
  H     -4.045000    1.031000    1.610600
  H     -1.921600    2.137200    1.025000
  C     -0.086400    1.364400   -0.788900
  O      0.750600    1.225600    0.351300
  C      2.023400    1.824700    0.247500
  C      3.034600    0.968300   -0.520900
  C      3.059600   -0.453900    0.045900
  C      1.776400   -1.175600   -0.307500
  O      1.399100   -1.300300   -1.448200
  C      1.003400   -1.778500    0.856000
  O      1.082700   -1.031000    2.038000
  H      0.767300   -0.139000    1.825700
  H      1.446100   -2.757700    1.074300
  H     -0.038900   -1.933100    0.543200
  H      3.880000   -1.007900   -0.415800
  H      3.196300   -0.439200    1.127000
  H      4.018500    1.430900   -0.436600
  H      2.765200    0.921700   -1.577800
  H      2.361900    1.946900    1.281500
  H      1.939900    2.817800   -0.215000
  H      0.369900    0.891200   -1.666800
  H     -0.233400    2.435400   -1.000400
  H     -1.129400   -0.896200   -1.865300
  H     -3.260200   -1.996900   -1.295600
  H     -4.719800   -1.036700    0.446300

----------------------------
CARTESIAN COORDINATES (A.U.)
----------------------------
  NO LB      ZA    FRAG     MASS         X           Y           Z
   0 C     6.0000    0    12.011   -7.161873   -1.040294    0.359615
   1 C     6.0000    0    12.011   -5.615132   -2.056589   -1.489104
   2 C     6.0000    0    12.011   -3.358610   -0.884959   -2.106478
   3 C     6.0000    0    12.011   -2.642215    1.323942   -0.887037
   4 C     6.0000    0    12.011   -4.197838    2.331544    0.971886
   5 C     6.0000    0    12.011   -6.446801    1.153867    1.593795
   6 H     1.0000    0     1.008   -7.643942    1.948308    3.043593
   7 H     1.0000    0     1.008   -3.631298    4.038723    1.936969
   8 C     6.0000    0    12.011   -0.163272    2.578342   -1.490805
   9 O     8.0000    0    15.999    1.418428    2.316048    0.663861
  10 C     6.0000    0    12.011    3.823672    3.448183    0.467707
  11 C     6.0000    0    12.011    5.734563    1.829822   -0.984358
  12 C     6.0000    0    12.011    5.781806   -0.857747    0.086738
  13 C     6.0000    0    12.011    3.356910   -2.221562   -0.581091
  14 O     8.0000    0    15.999    2.643916   -2.457211   -2.736701
  15 C     6.0000    0    12.011    1.896151   -3.360878    1.617606
  16 O     8.0000    0    15.999    2.046006   -1.948308    3.851262
  17 H     1.0000    0     1.008    1.449987   -0.262672    3.450073
  18 H     1.0000    0     1.008    2.732733   -5.211298    2.030133
  19 H     1.0000    0     1.008   -0.073510   -3.653030    1.026499
  20 H     1.0000    0     1.008    7.332137   -1.904655   -0.785748
  21 H     1.0000    0     1.008    6.040132   -0.829968    2.129721
  22 H     1.0000    0     1.008    7.593864    2.704009   -0.825054
  23 H     1.0000    0     1.008    5.225471    1.741761   -2.981610
  24 H     1.0000    0     1.008    4.463344    3.679108    2.421684
  25 H     1.0000    0     1.008    3.665880    5.324870   -0.406291
  26 H     1.0000    0     1.008    0.699010    1.684124   -3.149796
  27 H     1.0000    0     1.008   -0.441062    4.602239   -1.890482
  28 H     1.0000    0     1.008   -2.134257   -1.693573   -3.524906
  29 H     1.0000    0     1.008   -6.160885   -3.773594   -2.448329
  30 H     1.0000    0     1.008   -8.919129   -1.959079    0.843385

--------------------------------
INTERNAL COORDINATES (ANGSTROEM)
--------------------------------
 C      0   0   0     0.000000000000     0.00000000     0.00000000
 C      1   0   0     1.384283923189     0.00000000     0.00000000
 C      2   1   0     1.384560471774   120.18080359     0.00000000
 C      3   2   1     1.387968338976   120.19707611   359.58189352
 C      4   3   2     1.389109848068   119.38232086     0.60449520
 C      5   4   3     1.383120768407   120.36161906   359.64850927
 H      6   5   4     1.080117701920   119.88731220   179.90305663
 H      5   4   3     1.080197245877   119.42918648   179.29585817
 C      4   3   2     1.504503217012   120.72963879   178.36682249
 O      9   4   3     1.421228510831   107.45969300   248.66813609
 C     10   9   4     1.410572610680   115.52407884   181.60739976
 C     11  10   9     1.531791421833   113.27371991   278.97493355
 C     12  11  10     1.531189106544   110.14376175   309.02733277
 C     13  12  11     1.514049104224   110.02921922    70.54012028
 O     14  13  12     1.207932891348   122.30036703    56.19798823
 C     14  13  12     1.521430136418   116.16751788   234.32040594
 O     16  14  13     1.400774335859   113.89590046    34.29185553
 H     17  16  14     0.969645528015   106.72252564    56.50129391
 H     16  14  13     1.096572304958   107.51655269   276.42042028
 H     16  14  13     1.099151622844   108.65688824   159.42176905
 H     13  12  11     1.092309045097   109.07951589   187.90209378
 H     13  12  11     1.089807409591   110.89961410   308.43566395
 H     12  11  10     1.090488175085   108.64282476   187.83217925
 H     12  11  10     1.091689301038   110.28002343    69.16282144
 H     11  10   9     1.094838385334   104.88544403   159.74232356
 H     11  10   9     1.098692909780   110.26132944    42.91757750
 H      9   4   3     1.096738957091   110.02231405     9.38033386
 H      9   4   3     1.101536313519   110.69512116   129.59587452
 H      3   2   1     1.079941285441   120.26399111   178.91254040
 H      2   1   3     1.080100532358   120.05596672   179.66803462
 H      1   2   3     1.080111313708   120.11064872   180.18000656

---------------------------
INTERNAL COORDINATES (A.U.)
---------------------------
 C      0   0   0     0.000000000000     0.00000000     0.00000000
 C      1   0   0     2.615917506418     0.00000000     0.00000000
 C      2   1   0     2.616440107506   120.18080359     0.00000000
 C      3   2   1     2.622880043218   120.19707611   359.58189352
 C      4   3   2     2.625037182782   119.38232086     0.60449520
 C      5   4   3     2.613719462429   120.36161906   359.64850927
 H      6   5   4     2.041126649028   119.88731220   179.90305663
 H      5   4   3     2.041276965323   119.42918648   179.29585817
 C      4   3   2     2.843099047757   120.72963879   178.36682249
 O      9   4   3     2.685732659192   107.45969300   248.66813609
 C     10   9   4     2.665595926195   115.52407884   181.60739976
 C     11  10   9     2.894666281553   113.27371991   278.97493355
 C     12  11  10     2.893528070612   110.14376175   309.02733277
 C     13  12  11     2.861138160291   110.02921922    70.54012028
 O     14  13  12     2.282662352803   122.30036703    56.19798823
 C     14  13  12     2.875086289724   116.16751788   234.32040594
 O     16  14  13     2.647079870198   113.89590046    34.29185553
 H     17  16  14     1.832364494930   106.72252564    56.50129391
 H     16  14  13     2.072221342413   107.51655269   276.42042028
 H     16  14  13     2.077095546830   108.65688824   159.42176905
 H     13  12  11     2.064164948838   109.07951589   187.90209378
 H     13  12  11     2.059437542846   110.89961410   308.43566395
 H     12  11  10     2.060724003190   108.64282476   187.83217925
 H     12  11  10     2.062993802293   110.28002343    69.16282144
 H     11  10   9     2.068944709185   104.88544403   159.74232356
 H     11  10   9     2.076228704765   110.26132944    42.91757750
 H      9   4   3     2.072536269303   110.02231405     9.38033386
 H      9   4   3     2.081601959119   110.69512116   129.59587452
 H      3   2   1     2.040793270198   120.26399111   178.91254040
 H      2   1   3     2.041094203259   120.05596672   179.66803462
 H      1   2   3     2.041114577058   120.11064872   180.18000656

---------------------
BASIS SET INFORMATION
---------------------
There are 3 groups of distinct atoms

 Group   1 Type C   : 7s4p1d contracted to 3s2p1d pattern {511/31/1}
 Group   2 Type H   : 4s1p contracted to 2s1p pattern {31/1}
 Group   3 Type O   : 7s4p1d contracted to 3s2p1d pattern {511/31/1}

Atom   0C    basis set group =>   1
Atom   1C    basis set group =>   1
Atom   2C    basis set group =>   1
Atom   3C    basis set group =>   1
Atom   4C    basis set group =>   1
Atom   5C    basis set group =>   1
Atom   6H    basis set group =>   2
Atom   7H    basis set group =>   2
Atom   8C    basis set group =>   1
Atom   9O    basis set group =>   3
Atom  10C    basis set group =>   1
Atom  11C    basis set group =>   1
Atom  12C    basis set group =>   1
Atom  13C    basis set group =>   1
Atom  14O    basis set group =>   3
Atom  15C    basis set group =>   1
Atom  16O    basis set group =>   3
Atom  17H    basis set group =>   2
Atom  18H    basis set group =>   2
Atom  19H    basis set group =>   2
Atom  20H    basis set group =>   2
Atom  21H    basis set group =>   2
Atom  22H    basis set group =>   2
Atom  23H    basis set group =>   2
Atom  24H    basis set group =>   2
Atom  25H    basis set group =>   2
Atom  26H    basis set group =>   2
Atom  27H    basis set group =>   2
Atom  28H    basis set group =>   2
Atom  29H    basis set group =>   2
Atom  30H    basis set group =>   2
------------------------------------------------------------------------------
                           ORCA GTO INTEGRAL CALCULATION
------------------------------------------------------------------------------

                         BASIS SET STATISTICS AND STARTUP INFO

 # of primitive gaussian shells          ...  260
 # of primitive gaussian functions       ...  472
 # of contracted shells                  ...  138
 # of contracted basis functions         ...  290
 Highest angular momentum                ...    2
 Maximum contraction depth               ...    5
 Integral package used                   ... LIBINT
 Integral threshhold            Thresh   ...  2.500e-11
 Primitive cut-off              TCut     ...  2.500e-12


------------------------------ INTEGRAL EVALUATION ----------------------------


 * One electron integrals 
 Pre-screening matrix                    ... done
 Shell pair data                         ... done (   0.003 sec)

-------------------------------------------------------------------------------
                                 ORCA SCF
-------------------------------------------------------------------------------

------------
SCF SETTINGS
------------
Hamiltonian:
 Density Functional     Method          .... DFT(GTOs)
 Exchange Functional    Exchange        .... WB97X-D3
 Correlation Functional Correlation     .... WB97X-D3
 Gradients option       PostSCFGGA      .... off
 Hybrid DFT is turned on
   Fraction HF Exchange ScalHFX         ....  0.195728
   Scaling of DF-GGA-X  ScalDFX         ....  0.000000
   Scaling of DF-GGA-C  ScalDFC         ....  1.000000
   Scaling of DF-LDA-C  ScalLDAC        ....  1.000000
   Perturbative correction              ....  0.000000
   Density functional embedding theory  .... OFF
 Long-range corrected/Screened/Range-Separated Hybrid DFT is turned on
   Amount of maximum screened exact exchange              ....  0.804272
   Range separation parameter mu (erf(mu*r12)/r12)        ....  0.250000


General Settings:
 Integral files         IntName         .... 044477899
 Hartree-Fock type      HFTyp           .... RHF
 Total Charge           Charge          ....    0
 Multiplicity           Mult            ....    1
 Number of Electrons    NEL             ....  112
 Basis Dimension        Dim             ....  290
 Nuclear Repulsion      ENuc            ....   1043.4605663779 Eh

Convergence Acceleration:
 DIIS                   CNVDIIS         .... on
   Start iteration      DIISMaxIt       ....    12
   Startup error        DIISStart       ....  0.200000
   # of expansion vecs  DIISMaxEq       ....     5
   Bias factor          DIISBfac        ....   1.050
   Max. coefficient     DIISMaxC        ....  10.000
 Newton-Raphson         CNVNR           .... off
 SOSCF                  CNVSOSCF        .... on
   Start iteration      SOSCFMaxIt      ....   150
   Startup grad/error   SOSCFStart      ....  0.003300
 Level Shifting         CNVShift        .... on
   Level shift para.    LevelShift      ....    0.2500
   Turn off err/grad.   ShiftErr        ....    0.0010
 Zerner damping         CNVZerner       .... off
 Static damping         CNVDamp         .... on
   Fraction old density DampFac         ....    0.7000
   Max. Damping (<1)    DampMax         ....    0.9800
   Min. Damping (>=0)   DampMin         ....    0.0000
   Turn off err/grad.   DampErr         ....    0.1000
 Fernandez-Rico         CNVRico         .... off

SCF Procedure:
 Maximum # iterations   MaxIter         ....   125
 SCF integral mode      SCFMode         .... Direct
   Integral package                     .... LIBINT
 Reset frequency        DirectResetFreq ....    20
 Integral Threshold     Thresh          ....  2.500e-11 Eh
 Primitive CutOff       TCut            ....  2.500e-12 Eh

Convergence Tolerance:
 Convergence Check Mode ConvCheckMode   .... Total+1el-Energy
 Convergence forced     ConvForced      .... 0
 Energy Change          TolE            ....  1.000e-08 Eh
 1-El. energy change                    ....  1.000e-05 Eh
 Orbital Gradient       TolG            ....  1.000e-05
 Orbital Rotation angle TolX            ....  1.000e-05
 DIIS Error             TolErr          ....  5.000e-07


Diagonalization of the overlap matrix:
Smallest eigenvalue                        ... 2.677e-04
Time for diagonalization                   ...    0.062 sec
Threshold for overlap eigenvalues          ... 1.000e-08
Number of eigenvalues below threshold      ... 0
Time for construction of square roots      ...    0.005 sec
Total time needed                          ...    0.067 sec

-------------------
DFT GRID GENERATION
-------------------

General Integration Accuracy     IntAcc      ...  4.340
Radial Grid Type                 RadialGrid  ... Gauss-Chebyshev
Angular Grid (max. acc.)         AngularGrid ... Lebedev-110
Angular grid pruning method      GridPruning ... 3 (G Style)
Weight generation scheme         WeightScheme... Becke
Basis function cutoff            BFCut       ...    1.0000e-11
Integration weight cutoff        WCut        ...    1.0000e-14
Grids for H and He will be reduced by one unit

# of grid points (after initial pruning)     ...  37724 (   0.0 sec)
# of grid points (after weights+screening)   ...  33744 (   0.2 sec)
nearest neighbour list constructed           ...    0.0 sec
Grid point re-assignment to atoms done       ...    0.0 sec
Grid point division into batches done        ...    0.0 sec
Reduced shell lists constructed in    0.3 sec

Total number of grid points                  ...    33744
Total number of batches                      ...      545
Average number of points per batch           ...       61
Average number of grid points per atom       ...     1089
Average number of shells per batch           ...    83.72 (60.66%)
Average number of basis functions per batch  ...   166.94 (57.57%)
Average number of large shells per batch     ...    58.94 (70.40%)
Average number of large basis fcns per batch ...   115.90 (69.42%)
Maximum spatial batch extension              ...  20.13, 20.50, 22.44 au
Average spatial batch extension              ...   3.30,  3.42,  3.63 au

Time for grid setup =    0.548 sec

------------------------------
INITIAL GUESS: MODEL POTENTIAL
------------------------------
Loading Hartree-Fock densities                     ... done
Calculating cut-offs                               ... done
Setting up the integral package                    ... done
Initializing the effective Hamiltonian             ... done
Starting the Coulomb interaction                   ... done (   0.4 sec)
Reading the grid                                   ... done
Mapping shells                                     ... done
Starting the XC term evaluation                    ... done (   0.5 sec)
  promolecular density results
     # of electrons  =    111.970221367
     EX              =    -90.584292398
     EC              =     -3.743220598
     EX+EC           =    -94.327512996
Transforming the Hamiltonian                       ... done (   0.0 sec)
Diagonalizing the Hamiltonian                      ... done (   0.0 sec)
Back transforming the eigenvectors                 ... done (   0.0 sec)
Now organizing SCF variables                       ... done
                      ------------------
                      INITIAL GUESS DONE (   1.6 sec)
                      ------------------
--------------
SCF ITERATIONS
--------------
ITER       Energy         Delta-E        Max-DP      RMS-DP      [F,P]     Damp
               ***  Starting incremental Fock matrix formation  ***
  0   -691.5485566104   0.000000000000 0.06555897  0.00157395  0.2208095 0.7000
  1   -691.6769910944  -0.128434483975 0.04140911  0.00115110  0.1090332 0.7000
                               ***Turning on DIIS***
  2   -691.7418421363  -0.064851041840 0.07425471  0.00229886  0.0444485 0.0000
  3   -691.8514579604  -0.109615824167 0.03278103  0.00069261  0.0508838 0.0000
  4   -691.8656441919  -0.014186231430 0.00826416  0.00015294  0.0104989 0.0000
  5   -691.8661134466  -0.000469254781 0.00340567  0.00006373  0.0055763 0.0000
                      *** Initiating the SOSCF procedure ***
                           *** Shutting down DIIS ***
                      *** Re-Reading the Fockian *** 
                      *** Removing any level shift *** 
ITER      Energy       Delta-E        Grad      Rot      Max-DP    RMS-DP
  6   -691.86619280  -0.0000793484  0.000442  0.000442  0.001639  0.000041
               *** Restarting incremental Fock matrix formation ***
  7   -691.86620393  -0.0000111333  0.000160  0.000227  0.000971  0.000020
  8   -691.86620420  -0.0000002728  0.000180  0.000183  0.000597  0.000007
  9   -691.86620624  -0.0000020405  0.000028  0.000074  0.000119  0.000003
 10   -691.86620628  -0.0000000373  0.000020  0.000032  0.000059  0.000001
 11   -691.86620631  -0.0000000273  0.000004  0.000006  0.000014  0.000000
                  ***Gradient check signals convergence***
              ***Rediagonalizing the Fockian in SOSCF/NRSCF***

               *****************************************************
               *                     SUCCESS                       *
               *           SCF CONVERGED AFTER  12 CYCLES          *
               *****************************************************

Setting up the final grid:

General Integration Accuracy     IntAcc      ...  4.670
Radial Grid Type                 RadialGrid  ... Gauss-Chebyshev
Angular Grid (max. acc.)         AngularGrid ... Lebedev-302
Angular grid pruning method      GridPruning ... 3 (G Style)
Weight generation scheme         WeightScheme... Becke
Basis function cutoff            BFCut       ...    1.0000e-11
Integration weight cutoff        WCut        ...    1.0000e-14
Grids for H and He will be reduced by one unit

# of grid points (after initial pruning)     ... 147484 (   0.1 sec)
# of grid points (after weights+screening)   ... 128907 (   0.8 sec)
nearest neighbour list constructed           ...    0.0 sec
Grid point re-assignment to atoms done       ...    0.0 sec
Grid point division into batches done        ...    0.4 sec
Reduced shell lists constructed in    1.5 sec

Total number of grid points                  ...   128907
Total number of batches                      ...     2032
Average number of points per batch           ...       63
Average number of grid points per atom       ...     4158
Average number of shells per batch           ...    76.73 (55.60%)
Average number of basis functions per batch  ...   151.29 (52.17%)
Average number of large shells per batch     ...    52.92 (68.96%)
Average number of large basis fcns per batch ...   103.03 (68.10%)
Maximum spatial batch extension              ...  19.35, 19.06, 19.88 au
Average spatial batch extension              ...   2.21,  2.27,  2.36 au

Final grid set up in    2.4 sec
Final integration                            ... done (   2.7 sec)
Change in XC energy                          ...    -0.001291936
Integrated number of electrons               ...   112.000471190
Previous integrated no of electrons          ...   111.988547774

----------------
TOTAL SCF ENERGY
----------------

Total Energy       :         -691.86749824 Eh          -18826.67176 eV

Components:
Nuclear Repulsion  :         1043.46056638 Eh           28394.00553 eV
Electronic Energy  :        -1735.32806462 Eh          -47220.67729 eV
One Electron Energy:        -3012.30772143 Eh          -81969.06033 eV
Two Electron Energy:         1276.97965681 Eh           34748.38304 eV

Virial components:
Potential Energy   :        -1377.01084611 Eh          -37470.37008 eV
Kinetic Energy     :          685.14334786 Eh           18643.69832 eV
Virial Ratio       :            2.00981422


DFT components:
N(Alpha)           :       56.000235594851 electrons
N(Beta)            :       56.000235594851 electrons
N(Total)           :      112.000471189703 electrons
E(XC)              :      -66.572249710061 Eh       
DFET-embed. en.    :        0.000000000000 Eh       

---------------
SCF CONVERGENCE
---------------

  Last Energy change         ...   -2.6275e-09  Tolerance :   1.0000e-08
  Last MAX-Density change    ...    6.1365e-06  Tolerance :   1.0000e-07
  Last RMS-Density change    ...    1.0944e-07  Tolerance :   5.0000e-09
  Last Orbital Gradient      ...    1.4676e-06  Tolerance :   1.0000e-05
  Last Orbital Rotation      ...    2.9962e-06  Tolerance :   1.0000e-05

             **** THE GBW FILE WAS UPDATED (044477899.gbw) ****
             **** DENSITY FILE WAS UPDATED (044477899.scfp) ****
             **** ENERGY FILE WAS UPDATED (044477899.en.tmp) ****
             **** THE GBW FILE WAS UPDATED (044477899.gbw) ****
             **** DENSITY FILE WAS UPDATED (044477899.scfp) ****
----------------
ORBITAL ENERGIES
----------------

  NO   OCC          E(Eh)            E(eV) 
   0   2.0000     -19.267740      -524.3019 
   1   2.0000     -19.229160      -523.2520 
   2   2.0000     -19.226637      -523.1834 
   3   2.0000     -10.371933      -282.2346 
   4   2.0000     -10.346923      -281.5541 
   5   2.0000     -10.344498      -281.4881 
   6   2.0000     -10.325322      -280.9663 
   7   2.0000     -10.297414      -280.2069 
   8   2.0000     -10.296511      -280.1823 
   9   2.0000     -10.291747      -280.0527 
  10   2.0000     -10.291363      -280.0422 
  11   2.0000     -10.290980      -280.0318 
  12   2.0000     -10.289904      -280.0025 
  13   2.0000     -10.289487      -279.9912 
  14   2.0000     -10.288482      -279.9638 
  15   2.0000      -1.165896       -31.7257 
  16   2.0000      -1.148654       -31.2565 
  17   2.0000      -1.116007       -30.3681 
  18   2.0000      -0.977844       -26.6085 
  19   2.0000      -0.919562       -25.0226 
  20   2.0000      -0.884124       -24.0582 
  21   2.0000      -0.859179       -23.3794 
  22   2.0000      -0.834640       -22.7117 
  23   2.0000      -0.806352       -21.9420 
  24   2.0000      -0.777799       -21.1650 
  25   2.0000      -0.716468       -19.4961 
  26   2.0000      -0.712950       -19.4003 
  27   2.0000      -0.690456       -18.7883 
  28   2.0000      -0.649294       -17.6682 
  29   2.0000      -0.634468       -17.2648 
  30   2.0000      -0.617307       -16.7978 
  31   2.0000      -0.606382       -16.5005 
  32   2.0000      -0.592021       -16.1097 
  33   2.0000      -0.576635       -15.6910 
  34   2.0000      -0.567580       -15.4446 
  35   2.0000      -0.560812       -15.2605 
  36   2.0000      -0.545986       -14.8570 
  37   2.0000      -0.538574       -14.6553 
  38   2.0000      -0.536901       -14.6098 
  39   2.0000      -0.523063       -14.2333 
  40   2.0000      -0.514801       -14.0084 
  41   2.0000      -0.503594       -13.7035 
  42   2.0000      -0.489209       -13.3120 
  43   2.0000      -0.474824       -12.9206 
  44   2.0000      -0.471742       -12.8367 
  45   2.0000      -0.462814       -12.5938 
  46   2.0000      -0.444773       -12.1029 
  47   2.0000      -0.441488       -12.0135 
  48   2.0000      -0.435108       -11.8399 
  49   2.0000      -0.431221       -11.7341 
  50   2.0000      -0.417347       -11.3566 
  51   2.0000      -0.380013       -10.3407 
  52   2.0000      -0.371426       -10.1070 
  53   2.0000      -0.344072        -9.3627 
  54   2.0000      -0.340516        -9.2659 
  55   2.0000      -0.328535        -8.9399 
  56   0.0000       0.060917         1.6576 
  57   0.0000       0.067014         1.8236 
  58   0.0000       0.072525         1.9735 
  59   0.0000       0.140196         3.8149 
  60   0.0000       0.155370         4.2278 
  61   0.0000       0.168390         4.5821 
  62   0.0000       0.174063         4.7365 
  63   0.0000       0.177217         4.8223 
  64   0.0000       0.195136         5.3099 
  65   0.0000       0.203977         5.5505 
  66   0.0000       0.206649         5.6232 
  67   0.0000       0.209246         5.6939 
  68   0.0000       0.218398         5.9429 
  69   0.0000       0.225443         6.1346 
  70   0.0000       0.227604         6.1934 
  71   0.0000       0.240595         6.5469 
  72   0.0000       0.244787         6.6610 
  73   0.0000       0.251838         6.8529 
  74   0.0000       0.261335         7.1113 
  75   0.0000       0.272700         7.4205 
  76   0.0000       0.277629         7.5547 
  77   0.0000       0.298122         8.1123 
  78   0.0000       0.300641         8.1809 
  79   0.0000       0.316754         8.6193 
  80   0.0000       0.331907         9.0317 
  81   0.0000       0.339718         9.2442 
  82   0.0000       0.350822         9.5464 
  83   0.0000       0.378939        10.3114 
  84   0.0000       0.383550        10.4369 
  85   0.0000       0.396173        10.7804 
  86   0.0000       0.403988        10.9931 
  87   0.0000       0.417201        11.3526 
  88   0.0000       0.432648        11.7729 
  89   0.0000       0.456201        12.4139 
  90   0.0000       0.501796        13.6546 
  91   0.0000       0.505589        13.7578 
  92   0.0000       0.516357        14.0508 
  93   0.0000       0.517915        14.0932 
  94   0.0000       0.527648        14.3580 
  95   0.0000       0.543704        14.7949 
  96   0.0000       0.546184        14.8624 
  97   0.0000       0.559847        15.2342 
  98   0.0000       0.573242        15.5987 
  99   0.0000       0.579001        15.7554 
 100   0.0000       0.590214        16.0605 
 101   0.0000       0.600232        16.3331 
 102   0.0000       0.609145        16.5757 
 103   0.0000       0.620821        16.8934 
 104   0.0000       0.622073        16.9275 
 105   0.0000       0.643000        17.4969 
 106   0.0000       0.656578        17.8664 
 107   0.0000       0.659284        17.9400 
 108   0.0000       0.674830        18.3631 
 109   0.0000       0.683147        18.5894 
 110   0.0000       0.692362        18.8401 
 111   0.0000       0.702960        19.1285 
 112   0.0000       0.711110        19.3503 
 113   0.0000       0.718697        19.5567 
 114   0.0000       0.727485        19.7959 
 115   0.0000       0.728362        19.8197 
 116   0.0000       0.736260        20.0347 
 117   0.0000       0.738425        20.0936 
 118   0.0000       0.746570        20.3152 
 119   0.0000       0.749903        20.4059 
 120   0.0000       0.762175        20.7398 
 121   0.0000       0.763598        20.7786 
 122   0.0000       0.766192        20.8491 
 123   0.0000       0.777465        21.1559 
 124   0.0000       0.778749        21.1908 
 125   0.0000       0.786626        21.4052 
 126   0.0000       0.791111        21.5272 
 127   0.0000       0.793641        21.5961 
 128   0.0000       0.804378        21.8882 
 129   0.0000       0.812893        22.1199 
 130   0.0000       0.819005        22.2863 
 131   0.0000       0.828439        22.5430 
 132   0.0000       0.831061        22.6143 
 133   0.0000       0.844968        22.9927 
 134   0.0000       0.852299        23.1922 
 135   0.0000       0.856445        23.3050 
 136   0.0000       0.879483        23.9320 
 137   0.0000       0.888122        24.1670 
 138   0.0000       0.901316        24.5260 
 139   0.0000       0.911609        24.8061 
 140   0.0000       0.921921        25.0867 
 141   0.0000       0.947678        25.7876 
 142   0.0000       0.959685        26.1144 
 143   0.0000       0.986543        26.8452 
 144   0.0000       1.012172        27.5426 
 145   0.0000       1.021603        27.7992 
 146   0.0000       1.042181        28.3592 
 147   0.0000       1.074780        29.2462 
 148   0.0000       1.082548        29.4576 
 149   0.0000       1.117266        30.4024 
 150   0.0000       1.162920        31.6446 
 151   0.0000       1.173265        31.9262 
 152   0.0000       1.189334        32.3634 
 153   0.0000       1.198159        32.6036 
 154   0.0000       1.212055        32.9817 
 155   0.0000       1.227887        33.4125 
 156   0.0000       1.257553        34.2198 
 157   0.0000       1.286234        35.0002 
 158   0.0000       1.299741        35.3677 
 159   0.0000       1.307679        35.5837 
 160   0.0000       1.324473        36.0407 
 161   0.0000       1.343527        36.5592 
 162   0.0000       1.345053        36.6007 
 163   0.0000       1.353633        36.8342 
 164   0.0000       1.375505        37.4294 
 165   0.0000       1.387699        37.7612 
 166   0.0000       1.393608        37.9220 
 167   0.0000       1.399446        38.0809 
 168   0.0000       1.430281        38.9199 
 169   0.0000       1.440671        39.2027 
 170   0.0000       1.475703        40.1559 
 171   0.0000       1.512210        41.1493 
 172   0.0000       1.536467        41.8094 
 173   0.0000       1.569020        42.6952 
 174   0.0000       1.582113        43.0515 
 175   0.0000       1.594985        43.4018 
 176   0.0000       1.622610        44.1535 
 177   0.0000       1.640819        44.6490 
 178   0.0000       1.663751        45.2730 
 179   0.0000       1.677013        45.6338 
 180   0.0000       1.694834        46.1188 
 181   0.0000       1.726383        46.9773 
 182   0.0000       1.746236        47.5175 
 183   0.0000       1.756367        47.7932 
 184   0.0000       1.771045        48.1926 
 185   0.0000       1.788287        48.6618 
 186   0.0000       1.792373        48.7729 
 187   0.0000       1.806391        49.1544 
 188   0.0000       1.810848        49.2757 
 189   0.0000       1.826065        49.6897 
 190   0.0000       1.835073        49.9349 
 191   0.0000       1.846289        50.2401 
 192   0.0000       1.852506        50.4092 
 193   0.0000       1.861278        50.6479 
 194   0.0000       1.867673        50.8220 
 195   0.0000       1.869094        50.8606 
 196   0.0000       1.876468        51.0613 
 197   0.0000       1.887635        51.3652 
 198   0.0000       1.893991        51.5381 
 199   0.0000       1.905330        51.8467 
 200   0.0000       1.911063        52.0027 
 201   0.0000       1.919125        52.2220 
 202   0.0000       1.941254        52.8242 
 203   0.0000       1.942221        52.8505 
 204   0.0000       1.951897        53.1138 
 205   0.0000       1.956548        53.2404 
 206   0.0000       1.976412        53.7809 
 207   0.0000       1.981519        53.9199 
 208   0.0000       1.986715        54.0613 
 209   0.0000       1.997567        54.3566 
 210   0.0000       2.010160        54.6992 
 211   0.0000       2.017958        54.9114 
 212   0.0000       2.046359        55.6843 
 213   0.0000       2.056837        55.9694 
 214   0.0000       2.059023        56.0289 
 215   0.0000       2.072878        56.4059 
 216   0.0000       2.088451        56.8296 
 217   0.0000       2.102288        57.2062 
 218   0.0000       2.105191        57.2852 
 219   0.0000       2.109513        57.4028 
 220   0.0000       2.126786        57.8728 
 221   0.0000       2.164458        58.8979 
 222   0.0000       2.177017        59.2397 
 223   0.0000       2.200951        59.8909 
 224   0.0000       2.206312        60.0368 
 225   0.0000       2.215279        60.2808 
 226   0.0000       2.231811        60.7307 
 227   0.0000       2.234286        60.7980 
 228   0.0000       2.259241        61.4771 
 229   0.0000       2.268408        61.7265 
 230   0.0000       2.275575        61.9215 
 231   0.0000       2.289789        62.3083 
 232   0.0000       2.360662        64.2369 
 233   0.0000       2.381601        64.8067 
 234   0.0000       2.394171        65.1487 
 235   0.0000       2.399407        65.2912 
 236   0.0000       2.412583        65.6497 
 237   0.0000       2.418673        65.8154 
 238   0.0000       2.438159        66.3457 
 239   0.0000       2.455849        66.8271 
 240   0.0000       2.460746        66.9603 
 241   0.0000       2.464459        67.0613 
 242   0.0000       2.493461        67.8505 
 243   0.0000       2.510657        68.3185 
 244   0.0000       2.535502        68.9945 
 245   0.0000       2.548548        69.3495 
 246   0.0000       2.563607        69.7593 
 247   0.0000       2.616197        71.1903 
 248   0.0000       2.645424        71.9857 
 249   0.0000       2.665693        72.5372 
 250   0.0000       2.682848        73.0040 
 251   0.0000       2.731426        74.3259 
 252   0.0000       2.741456        74.5988 
 253   0.0000       2.750409        74.8424 
 254   0.0000       2.765080        75.2417 
 255   0.0000       2.767627        75.3110 
 256   0.0000       2.816562        76.6426 
 257   0.0000       2.829153        76.9852 
 258   0.0000       2.846641        77.4611 
 259   0.0000       2.852018        77.6074 
 260   0.0000       2.862012        77.8793 
 261   0.0000       2.878073        78.3164 
 262   0.0000       2.903033        78.9955 
 263   0.0000       2.940630        80.0186 
 264   0.0000       2.951810        80.3228 
 265   0.0000       2.979558        81.0779 
 266   0.0000       2.991608        81.4058 
 267   0.0000       3.008721        81.8715 
 268   0.0000       3.011238        81.9399 
 269   0.0000       3.023591        82.2761 
 270   0.0000       3.051348        83.0314 
 271   0.0000       3.075708        83.6943 
 272   0.0000       3.094034        84.1930 
 273   0.0000       3.114018        84.7367 
 274   0.0000       3.142944        85.5239 
 275   0.0000       3.174757        86.3895 
 276   0.0000       3.188373        86.7601 
 277   0.0000       3.206965        87.2659 
 278   0.0000       3.239213        88.1435 
 279   0.0000       3.265769        88.8661 
 280   0.0000       3.275926        89.1425 
 281   0.0000       3.300756        89.8181 
 282   0.0000       3.383220        92.0621 
 283   0.0000       3.409969        92.7900 
 284   0.0000       3.423668        93.1627 
 285   0.0000       3.544831        96.4597 
 286   0.0000       3.605762        98.1178 
 287   0.0000       3.763903       102.4210 
 288   0.0000       3.781487       102.8995 
 289   0.0000       3.919680       106.6599 

                    ********************************
                    * MULLIKEN POPULATION ANALYSIS *
                    ********************************

-----------------------
MULLIKEN ATOMIC CHARGES
-----------------------
   0 C :   -0.005902
   1 C :   -0.011694
   2 C :   -0.017560
   3 C :   -0.126630
   4 C :   -0.005562
   5 C :   -0.009901
   6 H :    0.014862
   7 H :    0.002859
   8 C :    0.294736
   9 O :   -0.446417
  10 C :    0.178366
  11 C :   -0.088808
  12 C :    0.010115
  13 C :   -0.074414
  14 O :   -0.232811
  15 C :    0.252410
  16 O :   -0.344241
  17 H :    0.182387
  18 H :    0.043480
  19 H :    0.031443
  20 H :    0.058115
  21 H :    0.036519
  22 H :    0.040209
  23 H :    0.049855
  24 H :    0.035568
  25 H :    0.024505
  26 H :    0.032928
  27 H :    0.023882
  28 H :    0.022228
  29 H :    0.014453
  30 H :    0.015021
Sum of atomic charges:    0.0000000

--------------------------------
MULLIKEN REDUCED ORBITAL CHARGES
--------------------------------
  0 C s       :     3.144667  s :     3.144667
      pz      :     0.969568  p :     2.825282
      px      :     0.904070
      py      :     0.951645
      dz2     :     0.007347  d :     0.035954
      dxz     :     0.005890
      dyz     :     0.006971
      dx2y2   :     0.007516
      dxy     :     0.008229
  1 C s       :     3.149357  s :     3.149357
      pz      :     0.952153  p :     2.826514
      px      :     0.966331
      py      :     0.908030
      dz2     :     0.006030  d :     0.035823
      dxz     :     0.007567
      dyz     :     0.005995
      dx2y2   :     0.008462
      dxy     :     0.007770
  2 C s       :     3.200068  s :     3.200068
      pz      :     0.930812  p :     2.782252
      px      :     0.900976
      py      :     0.950463
      dz2     :     0.004681  d :     0.035241
      dxz     :     0.007180
      dyz     :     0.006098
      dx2y2   :     0.008929
      dxy     :     0.008353
  3 C s       :     3.051294  s :     3.051294
      pz      :     1.011481  p :     3.032978
      px      :     1.015618
      py      :     1.005879
      dz2     :     0.008011  d :     0.042357
      dxz     :     0.007417
      dyz     :     0.007088
      dx2y2   :     0.009834
      dxy     :     0.010007
  4 C s       :     3.195061  s :     3.195061
      pz      :     0.949191  p :     2.775225
      px      :     0.934435
      py      :     0.891599
      dz2     :     0.006069  d :     0.035276
      dxz     :     0.007560
      dyz     :     0.005772
      dx2y2   :     0.008121
      dxy     :     0.007755
  5 C s       :     3.143575  s :     3.143575
      pz      :     0.932316  p :     2.830359
      px      :     0.940706
      py      :     0.957337
      dz2     :     0.004920  d :     0.035967
      dxz     :     0.007301
      dyz     :     0.006277
      dx2y2   :     0.008755
      dxy     :     0.008713
  6 H s       :     0.961990  s :     0.961990
      pz      :     0.009915  p :     0.023148
      px      :     0.007670
      py      :     0.005564
  7 H s       :     0.973839  s :     0.973839
      pz      :     0.006730  p :     0.023302
      px      :     0.004609
      py      :     0.011962
  8 C s       :     2.919578  s :     2.919578
      pz      :     0.827842  p :     2.724935
      px      :     0.882541
      py      :     1.014551
      dz2     :     0.014073  d :     0.060751
      dxz     :     0.017833
      dyz     :     0.009657
      dx2y2   :     0.011103
      dxy     :     0.008085
  9 O s       :     3.777457  s :     3.777457
      pz      :     1.556816  p :     4.653512
      px      :     1.338249
      py      :     1.758447
      dz2     :     0.003887  d :     0.015448
      dxz     :     0.003992
      dyz     :     0.001956
      dx2y2   :     0.002338
      dxy     :     0.003275
 10 C s       :     3.003473  s :     3.003473
      pz      :     1.037700  p :     2.755455
      px      :     0.757137
      py      :     0.960618
      dz2     :     0.011663  d :     0.062706
      dxz     :     0.011493
      dyz     :     0.006187
      dx2y2   :     0.017935
      dxy     :     0.015428
 11 C s       :     3.049739  s :     3.049739
      pz      :     1.040705  p :     3.003841
      px      :     0.993834
      py      :     0.969302
      dz2     :     0.010069  d :     0.035229
      dxz     :     0.003844
      dyz     :     0.006103
      dx2y2   :     0.006338
      dxy     :     0.008875
 12 C s       :     2.992816  s :     2.992816
      pz      :     0.993580  p :     2.965321
      px      :     1.002728
      py      :     0.969013
      dz2     :     0.008800  d :     0.031748
      dxz     :     0.003813
      dyz     :     0.005163
      dx2y2   :     0.005312
      dxy     :     0.008660
 13 C s       :     3.216282  s :     3.216282
      pz      :     0.970056  p :     2.760234
      px      :     0.965059
      py      :     0.825118
      dz2     :     0.027326  d :     0.097898
      dxz     :     0.031409
      dyz     :     0.024288
      dx2y2   :     0.007833
      dxy     :     0.007041
 14 O s       :     3.740696  s :     3.740696
      pz      :     1.387189  p :     4.473851
      px      :     1.635498
      py      :     1.451164
      dz2     :     0.006853  d :     0.018264
      dxz     :     0.005084
      dyz     :     0.005149
      dx2y2   :     0.000609
      dxy     :     0.000569
 15 C s       :     2.935560  s :     2.935560
      pz      :     0.783457  p :     2.749716
      px      :     1.006855
      py      :     0.959405
      dz2     :     0.016053  d :     0.062315
      dxz     :     0.015072
      dyz     :     0.015127
      dx2y2   :     0.008349
      dxy     :     0.007714
 16 O s       :     3.723204  s :     3.723204
      pz      :     1.506605  p :     4.607659
      px      :     1.825325
      py      :     1.275728
      dz2     :     0.004426  d :     0.013379
      dxz     :     0.002101
      dyz     :     0.003843
      dx2y2   :     0.001486
      dxy     :     0.001523
 17 H s       :     0.746555  s :     0.746555
      pz      :     0.015481  p :     0.071058
      px      :     0.019957
      py      :     0.035619
 18 H s       :     0.934383  s :     0.934383
      pz      :     0.003582  p :     0.022137
      px      :     0.006434
      py      :     0.012121
 19 H s       :     0.946555  s :     0.946555
      pz      :     0.003936  p :     0.022002
      px      :     0.014382
      py      :     0.003684
 20 H s       :     0.918654  s :     0.918654
      pz      :     0.006547  p :     0.023231
      px      :     0.009996
      py      :     0.006689
 21 H s       :     0.939684  s :     0.939684
      pz      :     0.015817  p :     0.023796
      px      :     0.004441
      py      :     0.003539
 22 H s       :     0.937360  s :     0.937360
      pz      :     0.004585  p :     0.022432
      px      :     0.012452
      py      :     0.005395
 23 H s       :     0.927503  s :     0.927503
      pz      :     0.013811  p :     0.022642
      px      :     0.005105
      py      :     0.003725
 24 H s       :     0.943725  s :     0.943725
      pz      :     0.013479  p :     0.020707
      px      :     0.003185
      py      :     0.004043
 25 H s       :     0.954331  s :     0.954331
      pz      :     0.006230  p :     0.021164
      px      :     0.002492
      py      :     0.012441
 26 H s       :     0.944523  s :     0.944523
      pz      :     0.010348  p :     0.022549
      px      :     0.004970
      py      :     0.007230
 27 H s       :     0.954902  s :     0.954902
      pz      :     0.003746  p :     0.021216
      px      :     0.003493
      py      :     0.013977
 28 H s       :     0.953647  s :     0.953647
      pz      :     0.009482  p :     0.024125
      px      :     0.008904
      py      :     0.005739
 29 H s       :     0.962343  s :     0.962343
      pz      :     0.006573  p :     0.023204
      px      :     0.004455
      py      :     0.012176
 30 H s       :     0.961771  s :     0.961771
      pz      :     0.004613  p :     0.023208
      px      :     0.012493
      py      :     0.006102


                     *******************************
                     * LOEWDIN POPULATION ANALYSIS *
                     *******************************

----------------------
LOEWDIN ATOMIC CHARGES
----------------------
   0 C :   -0.025694
   1 C :   -0.028612
   2 C :   -0.019087
   3 C :   -0.050999
   4 C :   -0.018473
   5 C :   -0.027940
   6 H :    0.030587
   7 H :    0.028973
   8 C :    0.088798
   9 O :   -0.163683
  10 C :    0.072416
  11 C :   -0.048236
  12 C :   -0.065199
  13 C :    0.071521
  14 O :   -0.165657
  15 C :    0.040803
  16 O :   -0.138652
  17 H :    0.059755
  18 H :    0.037632
  19 H :    0.021848
  20 H :    0.047086
  21 H :    0.028260
  22 H :    0.032828
  23 H :    0.028165
  24 H :    0.022663
  25 H :    0.014199
  26 H :    0.015356
  27 H :    0.017484
  28 H :    0.032509
  29 H :    0.031087
  30 H :    0.030263

-------------------------------
LOEWDIN REDUCED ORBITAL CHARGES
-------------------------------
  0 C s       :     2.851911  s :     2.851911
      pz      :     1.018610  p :     3.080374
      px      :     1.027060
      py      :     1.034704
      dz2     :     0.017008  d :     0.093409
      dxz     :     0.015861
      dyz     :     0.019241
      dx2y2   :     0.019581
      dxy     :     0.021719
  1 C s       :     2.851432  s :     2.851432
      pz      :     1.014817  p :     3.083781
      px      :     1.047279
      py      :     1.021685
      dz2     :     0.014096  d :     0.093399
      dxz     :     0.020710
      dyz     :     0.015472
      dx2y2   :     0.022091
      dxy     :     0.021030
  2 C s       :     2.853208  s :     2.853208
      pz      :     1.007066  p :     3.072858
      px      :     1.038472
      py      :     1.027320
      dz2     :     0.011344  d :     0.093020
      dxz     :     0.018369
      dyz     :     0.016064
      dx2y2   :     0.023063
      dxy     :     0.024179
  3 C s       :     2.849069  s :     2.849069
      pz      :     1.028741  p :     3.093918
      px      :     1.022736
      py      :     1.042441
      dz2     :     0.018682  d :     0.108012
      dxz     :     0.019272
      dyz     :     0.019559
      dx2y2   :     0.024641
      dxy     :     0.025858
  4 C s       :     2.850423  s :     2.850423
      pz      :     1.012215  p :     3.074592
      px      :     1.040662
      py      :     1.021715
      dz2     :     0.014360  d :     0.093458
      dxz     :     0.021098
      dyz     :     0.015195
      dx2y2   :     0.021721
      dxy     :     0.021084
  5 C s       :     2.850646  s :     2.850646
      pz      :     1.007370  p :     3.083740
      px      :     1.038994
      py      :     1.037376
      dz2     :     0.011688  d :     0.093554
      dxz     :     0.018578
      dyz     :     0.016495
      dx2y2   :     0.022553
      dxy     :     0.024240
  6 H s       :     0.900702  s :     0.900702
      pz      :     0.028557  p :     0.068712
      px      :     0.022891
      py      :     0.017264
  7 H s       :     0.901970  s :     0.901970
      pz      :     0.020111  p :     0.069057
      px      :     0.014829
      py      :     0.034117
  8 C s       :     2.837209  s :     2.837209
      pz      :     0.910497  p :     2.932639
      px      :     0.955020
      py      :     1.067122
      dz2     :     0.033640  d :     0.141354
      dxz     :     0.039882
      dyz     :     0.022623
      dx2y2   :     0.026317
      dxy     :     0.018892
  9 O s       :     3.456192  s :     3.456192
      pz      :     1.573924  p :     4.679298
      px      :     1.357085
      py      :     1.748289
      dz2     :     0.006625  d :     0.028193
      dxz     :     0.007916
      dyz     :     0.002714
      dx2y2   :     0.004884
      dxy     :     0.006055
 10 C s       :     2.842151  s :     2.842151
      pz      :     1.075924  p :     2.941093
      px      :     0.856128
      py      :     1.009041
      dz2     :     0.026610  d :     0.144340
      dxz     :     0.026892
      dyz     :     0.015689
      dx2y2   :     0.038912
      dxy     :     0.036237
 11 C s       :     2.838333  s :     2.838333
      pz      :     1.064419  p :     3.122280
      px      :     1.047327
      py      :     1.010534
      dz2     :     0.024477  d :     0.087622
      dxz     :     0.009917
      dyz     :     0.014720
      dx2y2   :     0.016885
      dxy     :     0.021623
 12 C s       :     2.837857  s :     2.837857
      pz      :     1.067796  p :     3.143912
      px      :     1.049154
      py      :     1.026961
      dz2     :     0.023871  d :     0.083430
      dxz     :     0.009975
      dyz     :     0.012210
      dx2y2   :     0.014995
      dxy     :     0.022377
 13 C s       :     2.899179  s :     2.899179
      pz      :     1.037537  p :     2.810297
      px      :     0.961255
      py      :     0.811505
      dz2     :     0.066743  d :     0.219003
      dxz     :     0.072899
      dyz     :     0.048722
      dx2y2   :     0.014804
      dxy     :     0.015834
 14 O s       :     3.535308  s :     3.535308
      pz      :     1.508704  p :     4.598897
      px      :     1.644312
      py      :     1.445880
      dz2     :     0.014014  d :     0.031452
      dxz     :     0.008967
      dyz     :     0.006757
      dx2y2   :     0.000867
      dxy     :     0.000847
 15 C s       :     2.844943  s :     2.844943
      pz      :     0.906027  p :     2.970696
      px      :     1.067061
      py      :     0.997608
      dz2     :     0.036949  d :     0.143558
      dxz     :     0.035871
      dyz     :     0.033503
      dx2y2   :     0.020074
      dxy     :     0.017161
 16 O s       :     3.433848  s :     3.433848
      pz      :     1.536723  p :     4.680324
      px      :     1.803848
      py      :     1.339753
      dz2     :     0.007617  d :     0.024480
      dxz     :     0.002576
      dyz     :     0.007440
      dx2y2   :     0.003682
      dxy     :     0.003165
 17 H s       :     0.749037  s :     0.749037
      pz      :     0.043304  p :     0.191207
      px      :     0.057000
      py      :     0.090903
 18 H s       :     0.897507  s :     0.897507
      pz      :     0.011294  p :     0.064861
      px      :     0.017697
      py      :     0.035870
 19 H s       :     0.910821  s :     0.910821
      pz      :     0.012575  p :     0.067331
      px      :     0.041961
      py      :     0.012795
 20 H s       :     0.883385  s :     0.883385
      pz      :     0.018543  p :     0.069529
      px      :     0.030042
      py      :     0.020944
 21 H s       :     0.899487  s :     0.899487
      pz      :     0.044642  p :     0.072253
      px      :     0.014523
      py      :     0.013088
 22 H s       :     0.899255  s :     0.899255
      pz      :     0.013902  p :     0.067916
      px      :     0.036057
      py      :     0.017958
 23 H s       :     0.902453  s :     0.902453
      pz      :     0.040675  p :     0.069382
      px      :     0.015511
      py      :     0.013196
 24 H s       :     0.913414  s :     0.913414
      pz      :     0.039849  p :     0.063923
      px      :     0.011960
      py      :     0.012113
 25 H s       :     0.920580  s :     0.920580
      pz      :     0.017976  p :     0.065221
      px      :     0.009130
      py      :     0.038115
 26 H s       :     0.916006  s :     0.916006
      pz      :     0.032550  p :     0.068638
      px      :     0.016308
      py      :     0.019779
 27 H s       :     0.917662  s :     0.917662
      pz      :     0.011280  p :     0.064855
      px      :     0.012267
      py      :     0.041308
 28 H s       :     0.895899  s :     0.895899
      pz      :     0.028709  p :     0.071591
      px      :     0.025320
      py      :     0.017562
 29 H s       :     0.900100  s :     0.900100
      pz      :     0.019899  p :     0.068813
      px      :     0.014533
      py      :     0.034381
 30 H s       :     0.900935  s :     0.900935
      pz      :     0.014830  p :     0.068801
      px      :     0.035172
      py      :     0.018799


                      *****************************
                      * MAYER POPULATION ANALYSIS *
                      *****************************

  NA   - Mulliken gross atomic population
  ZA   - Total nuclear charge
  QA   - Mulliken gross atomic charge
  VA   - Mayer's total valence
  BVA  - Mayer's bonded valence
  FA   - Mayer's free valence

  ATOM       NA         ZA         QA         VA         BVA        FA
  0 C      6.0059     6.0000    -0.0059     3.8542     3.8542     0.0000
  1 C      6.0117     6.0000    -0.0117     3.8635     3.8635     0.0000
  2 C      6.0176     6.0000    -0.0176     3.9010     3.9010     0.0000
  3 C      6.1266     6.0000    -0.1266     3.9617     3.9617     0.0000
  4 C      6.0056     6.0000    -0.0056     3.8890     3.8890     0.0000
  5 C      6.0099     6.0000    -0.0099     3.8684     3.8684     0.0000
  6 H      0.9851     1.0000     0.0149     0.9841     0.9841     0.0000
  7 H      0.9971     1.0000     0.0029     0.9944     0.9944     0.0000
  8 C      5.7053     6.0000     0.2947     3.8579     3.8579    -0.0000
  9 O      8.4464     8.0000    -0.4464     2.0629     2.0629     0.0000
 10 C      5.8216     6.0000     0.1784     4.0074     4.0074    -0.0000
 11 C      6.0888     6.0000    -0.0888     4.0462     4.0462    -0.0000
 12 C      5.9899     6.0000     0.0101     3.8661     3.8661    -0.0000
 13 C      6.0744     6.0000    -0.0744     4.1982     4.1982     0.0000
 14 O      8.2328     8.0000    -0.2328     2.2346     2.2346    -0.0000
 15 C      5.7476     6.0000     0.2524     3.8591     3.8591     0.0000
 16 O      8.3442     8.0000    -0.3442     2.1082     2.1082     0.0000
 17 H      0.8176     1.0000     0.1824     1.0487     1.0487     0.0000
 18 H      0.9565     1.0000     0.0435     0.9889     0.9889    -0.0000
 19 H      0.9686     1.0000     0.0314     1.0130     1.0130     0.0000
 20 H      0.9419     1.0000     0.0581     0.9921     0.9921    -0.0000
 21 H      0.9635     1.0000     0.0365     1.0231     1.0231    -0.0000
 22 H      0.9598     1.0000     0.0402     0.9826     0.9826     0.0000
 23 H      0.9501     1.0000     0.0499     0.9975     0.9975     0.0000
 24 H      0.9644     1.0000     0.0356     0.9836     0.9836     0.0000
 25 H      0.9755     1.0000     0.0245     0.9869     0.9869     0.0000
 26 H      0.9671     1.0000     0.0329     1.0092     1.0092    -0.0000
 27 H      0.9761     1.0000     0.0239     0.9842     0.9842    -0.0000
 28 H      0.9778     1.0000     0.0222     1.0192     1.0192     0.0000
 29 H      0.9855     1.0000     0.0145     0.9843     0.9843    -0.0000
 30 H      0.9850     1.0000     0.0150     0.9840     0.9840    -0.0000

  Mayer bond orders larger than 0.100000
B(  0-C ,  1-C ) :   1.4013 B(  0-C ,  5-C ) :   1.3896 B(  0-C , 30-H ) :   0.9935 
B(  1-C ,  2-C ) :   1.3829 B(  1-C , 29-H ) :   0.9933 B(  2-C ,  3-C ) :   1.4256 
B(  2-C , 28-H ) :   0.9882 B(  3-C ,  4-C ) :   1.3911 B(  3-C ,  8-C ) :   1.0279 
B(  4-C ,  5-C ) :   1.4032 B(  4-C ,  7-H ) :   0.9973 B(  5-C ,  6-H ) :   0.9928 
B(  8-C ,  9-O ) :   0.9332 B(  8-C , 26-H ) :   0.9365 B(  8-C , 27-H ) :   0.9327 
B(  9-O , 10-C ) :   0.9676 B( 10-C , 11-C ) :   1.0615 B( 10-C , 24-H ) :   0.9592 
B( 10-C , 25-H ) :   0.9503 B( 11-C , 12-C ) :   1.0561 B( 11-C , 22-H ) :   0.9489 
B( 11-C , 23-H ) :   0.9441 B( 12-C , 13-C ) :   0.9607 B( 12-C , 20-H ) :   0.9253 
B( 12-C , 21-H ) :   0.9395 B( 13-C , 14-O ) :   2.0836 B( 13-C , 15-C ) :   0.9596 
B( 15-C , 16-O ) :   1.0431 B( 15-C , 18-H ) :   0.9285 B( 15-C , 19-H ) :   0.9379 
B( 16-O , 17-H ) :   0.9555 

-------
TIMINGS
-------

Total SCF time: 0 days 0 hours 5 min 49 sec 

Total time                  ....     349.665 sec
Sum of individual times     ....     349.357 sec  ( 99.9%)

Fock matrix formation       ....     345.172 sec  ( 98.7%)
  XC integration            ....      11.392 sec  (  3.3% of F)
    Basis function eval.    ....       3.328 sec  ( 29.2% of XC)
    Density eval.           ....       2.305 sec  ( 20.2% of XC)
    XC-Functional eval.     ....       2.399 sec  ( 21.1% of XC)
    XC-Potential eval.      ....       3.066 sec  ( 26.9% of XC)
Diagonalization             ....       0.094 sec  (  0.0%)
Density matrix formation    ....       0.021 sec  (  0.0%)
Population analysis         ....       0.011 sec  (  0.0%)
Initial guess               ....       1.065 sec  (  0.3%)
Orbital Transformation      ....       0.000 sec  (  0.0%)
Orbital Orthonormalization  ....       0.000 sec  (  0.0%)
DIIS solution               ....       0.034 sec  (  0.0%)
SOSCF solution              ....       0.051 sec  (  0.0%)
Grid generation             ....       2.909 sec  (  0.8%)


-------------------------------------------------------------------------------
                          DFT DISPERSION CORRECTION                            
                                                                               
                              DFTD3 V3.1  Rev 1                                
                              USING zero damping                               
-------------------------------------------------------------------------------
The omegaB97X-D3 functional is recognized. Fit by Chai et al.
Active option DFTDOPT                   ...         3   

molecular C6(AA) [au] = 8899.920364 


            DFT-D V3
 parameters
 s6 scaling factor         :     1.0000 
 rs6 scaling factor        :     1.2810 
 s8 scaling factor         :     1.0000 
 rs8 scaling factor        :     1.0940 
 Damping factor alpha6     :    14.0000 
 Damping factor alpha8     :    16.0000 
 ad hoc parameters k1-k3   :    16.0000     1.3333    -4.0000 

 Edisp/kcal,au: -9.893910661021  -0.015766948571 
 E6   /kcal   :  -4.399202634 
 E8   /kcal   :  -5.494708027 
 % E8         :  55.536260789 

-------------------------   ----------------
Dispersion correction           -0.015766949
-------------------------   ----------------


-------------------------   --------------------
FINAL SINGLE POINT ENERGY      -691.883265193168
-------------------------   --------------------

------------------------------------------------------------------------------
                         ORCA SCF GRADIENT CALCULATION
------------------------------------------------------------------------------

Gradient of the Kohn-Sham DFT energy:
Kohn-Sham wavefunction type      ... RKS
Hartree-Fock exchange scaling    ...    0.196
[...]
      dz2     :     0.027771  d :     0.096643
      dxz     :     0.030517
      dyz     :     0.023647
      dx2y2   :     0.007500
      dxy     :     0.007208
 14 O s       :     3.744191  s :     3.744191
      pz      :     1.390824  p :     4.469214
      px      :     1.628796
      py      :     1.449594
      dz2     :     0.006711  d :     0.018068
      dxz     :     0.005013
      dyz     :     0.005133
      dx2y2   :     0.000647
      dxy     :     0.000563
 15 C s       :     2.941947  s :     2.941947
      pz      :     0.800508  p :     2.746661
      px      :     1.004290
      py      :     0.941863
      dz2     :     0.014888  d :     0.063329
      dxz     :     0.015170
      dyz     :     0.015827
      dx2y2   :     0.008205
      dxy     :     0.009238
 16 O s       :     3.720457  s :     3.720457
      pz      :     1.518957  p :     4.604412
      px      :     1.804966
      py      :     1.280489
      dz2     :     0.003935  d :     0.013529
      dxz     :     0.002197
      dyz     :     0.004636
      dx2y2   :     0.001120
      dxy     :     0.001642
 17 H s       :     0.744133  s :     0.744133
      pz      :     0.016632  p :     0.072069
      px      :     0.020292
      py      :     0.035145
 18 H s       :     0.934051  s :     0.934051
      pz      :     0.003854  p :     0.021957
      px      :     0.006671
      py      :     0.011432
 19 H s       :     0.950121  s :     0.950121
      pz      :     0.004362  p :     0.021972
      px      :     0.013760
      py      :     0.003850
 20 H s       :     0.917069  s :     0.917069
      pz      :     0.006852  p :     0.022743
      px      :     0.009629
      py      :     0.006262
 21 H s       :     0.936984  s :     0.936984
      pz      :     0.015063  p :     0.022828
      px      :     0.004363
      py      :     0.003402
 22 H s       :     0.934601  s :     0.934601
      pz      :     0.004491  p :     0.021977
      px      :     0.012238
      py      :     0.005248
 23 H s       :     0.925444  s :     0.925444
      pz      :     0.013437  p :     0.022126
      px      :     0.005161
      py      :     0.003528
 24 H s       :     0.938393  s :     0.938393
      pz      :     0.013236  p :     0.020545
      px      :     0.003270
      py      :     0.004039
 25 H s       :     0.953392  s :     0.953392
      pz      :     0.005924  p :     0.020868
      px      :     0.002363
      py      :     0.012582
 26 H s       :     0.946930  s :     0.946930
      pz      :     0.010383  p :     0.022062
      px      :     0.004888
      py      :     0.006791
 27 H s       :     0.955625  s :     0.955625
      pz      :     0.003684  p :     0.020970
      px      :     0.003386
      py      :     0.013900
 28 H s       :     0.942242  s :     0.942242
      pz      :     0.008546  p :     0.023839
      px      :     0.009507
      py      :     0.005786
 29 H s       :     0.954165  s :     0.954165
      pz      :     0.006239  p :     0.022637
      px      :     0.004046
      py      :     0.012353
 30 H s       :     0.953557  s :     0.953557
      pz      :     0.004377  p :     0.022556
      px      :     0.012329
      py      :     0.005850


                     *******************************
                     * LOEWDIN POPULATION ANALYSIS *
                     *******************************

----------------------
LOEWDIN ATOMIC CHARGES
----------------------
   0 C :   -0.027248
   1 C :   -0.031004
   2 C :   -0.021069
   3 C :   -0.053945
   4 C :   -0.020124
   5 C :   -0.030634
   6 H :    0.033459
   7 H :    0.032220
   8 C :    0.085302
   9 O :   -0.163365
  10 C :    0.072252
  11 C :   -0.052424
  12 C :   -0.066991
  13 C :    0.071351
  14 O :   -0.166310
  15 C :    0.037509
  16 O :   -0.136305
  17 H :    0.055376
  18 H :    0.037829
  19 H :    0.019725
  20 H :    0.048752
  21 H :    0.030829
  22 H :    0.035931
  23 H :    0.030270
  24 H :    0.026028
  25 H :    0.015990
  26 H :    0.016169
  27 H :    0.017695
  28 H :    0.035293
  29 H :    0.034152
  30 H :    0.033287

-------------------------------
LOEWDIN REDUCED ORBITAL CHARGES
-------------------------------
  0 C s       :     2.860222  s :     2.860222
      pz      :     1.011349  p :     3.076644
      px      :     1.028615
      py      :     1.036680
      dz2     :     0.015215  d :     0.090382
      dxz     :     0.014459
      dyz     :     0.018071
      dx2y2   :     0.020381
      dxy     :     0.022257
  1 C s       :     2.859500  s :     2.859500
      pz      :     1.008720  p :     3.081188
      px      :     1.048772
      py      :     1.023696
      dz2     :     0.012485  d :     0.090316
      dxz     :     0.019448
      dyz     :     0.014004
      dx2y2   :     0.022917
      dxy     :     0.021461
  2 C s       :     2.861684  s :     2.861684
      pz      :     1.001015  p :     3.069487
      px      :     1.039154
      py      :     1.029318
      dz2     :     0.009727  d :     0.089898
      dxz     :     0.016760
      dyz     :     0.015324
      dx2y2   :     0.023406
      dxy     :     0.024681
  3 C s       :     2.853784  s :     2.853784
      pz      :     1.023094  p :     3.094613
      px      :     1.025290
      py      :     1.046229
      dz2     :     0.016865  d :     0.105547
      dxz     :     0.018010
      dyz     :     0.018492
      dx2y2   :     0.025473
      dxy     :     0.026707
  4 C s       :     2.858797  s :     2.858797
      pz      :     1.005434  p :     3.070846
      px      :     1.042063
      py      :     1.023350
      dz2     :     0.012820  d :     0.090481
      dxz     :     0.019789
      dyz     :     0.013773
      dx2y2   :     0.022692
      dxy     :     0.021407
  5 C s       :     2.858841  s :     2.858841
      pz      :     1.003007  p :     3.081384
      px      :     1.039295
      py      :     1.039082
      dz2     :     0.010172  d :     0.090409
      dxz     :     0.017100
      dyz     :     0.015711
      dx2y2   :     0.022885
      dxy     :     0.024540
  6 H s       :     0.899828  s :     0.899828
      pz      :     0.026299  p :     0.066713
      px      :     0.023519
      py      :     0.016895
  7 H s       :     0.900926  s :     0.900926
      pz      :     0.018970  p :     0.066854
      px      :     0.013379
      py      :     0.034505
  8 C s       :     2.839148  s :     2.839148
      pz      :     0.911230  p :     2.933203
      px      :     0.956282
      py      :     1.065691
      dz2     :     0.033786  d :     0.142347
      dxz     :     0.040250
      dyz     :     0.022374
      dx2y2   :     0.026530
      dxy     :     0.019408
  9 O s       :     3.453660  s :     3.453660
      pz      :     1.574666  p :     4.681582
      px      :     1.348760
      py      :     1.758156
      dz2     :     0.006540  d :     0.028123
      dxz     :     0.008119
      dyz     :     0.002710
      dx2y2   :     0.004964
      dxy     :     0.005791
 10 C s       :     2.844795  s :     2.844795
      pz      :     1.076294  p :     2.939475
      px      :     0.850397
      py      :     1.012784
      dz2     :     0.025790  d :     0.143478
      dxz     :     0.028105
      dyz     :     0.015144
      dx2y2   :     0.039449
      dxy     :     0.034990
 11 C s       :     2.842152  s :     2.842152
      pz      :     1.062298  p :     3.122772
      px      :     1.049267
      py      :     1.011208
      dz2     :     0.023974  d :     0.087500
      dxz     :     0.010324
      dyz     :     0.014803
      dx2y2   :     0.016930
      dxy     :     0.021469
 12 C s       :     2.843816  s :     2.843816
      pz      :     1.066566  p :     3.140885
      px      :     1.048115
      py      :     1.026204
      dz2     :     0.022488  d :     0.082290
      dxz     :     0.010878
      dyz     :     0.011821
      dx2y2   :     0.014561
      dxy     :     0.022542
 13 C s       :     2.904521  s :     2.904521
      pz      :     1.038656  p :     2.808939
      px      :     0.953181
      py      :     0.817101
      dz2     :     0.067760  d :     0.215188
      dxz     :     0.069981
      dyz     :     0.047087
      dx2y2   :     0.013905
      dxy     :     0.016455
 14 O s       :     3.539181  s :     3.539181
      pz      :     1.511710  p :     4.595983
      px      :     1.638718
      py      :     1.445555
      dz2     :     0.013779  d :     0.031146
      dxz     :     0.008753
      dyz     :     0.006846
      dx2y2   :     0.000875
      dxy     :     0.000893
 15 C s       :     2.846032  s :     2.846032
      pz      :     0.921449  p :     2.970555
      px      :     1.064703
      py      :     0.984403
      dz2     :     0.034058  d :     0.145903
      dxz     :     0.036498
      dyz     :     0.035768
      dx2y2   :     0.018931
      dxy     :     0.020649
 16 O s       :     3.432207  s :     3.432207
      pz      :     1.553426  p :     4.679343
      px      :     1.786978
      py      :     1.338938
      dz2     :     0.006453  d :     0.024756
      dxz     :     0.002684
      dyz     :     0.009130
      dx2y2   :     0.002879
      dxy     :     0.003610
 17 H s       :     0.747839  s :     0.747839
      pz      :     0.047841  p :     0.196784
      px      :     0.058546
      py      :     0.090397
 18 H s       :     0.898478  s :     0.898478
      pz      :     0.011802  p :     0.063693
      px      :     0.018153
      py      :     0.033737
 19 H s       :     0.913819  s :     0.913819
      pz      :     0.013303  p :     0.066456
      px      :     0.039732
      py      :     0.013421
 20 H s       :     0.883553  s :     0.883553
      pz      :     0.019246  p :     0.067695
      px      :     0.028901
      py      :     0.019548
 21 H s       :     0.899848  s :     0.899848
      pz      :     0.042533  p :     0.069323
      px      :     0.014269
      py      :     0.012521
 22 H s       :     0.898113  s :     0.898113
      pz      :     0.013324  p :     0.065956
      px      :     0.035315
      py      :     0.017317
 23 H s       :     0.902389  s :     0.902389
      pz      :     0.039608  p :     0.067341
      px      :     0.015354
      py      :     0.012379
 24 H s       :     0.910972  s :     0.910972
      pz      :     0.039177  p :     0.063000
      px      :     0.012038
      py      :     0.011785
 25 H s       :     0.920053  s :     0.920053
      pz      :     0.016980  p :     0.063957
      px      :     0.008642
      py      :     0.038335
 26 H s       :     0.917028  s :     0.917028
      pz      :     0.032435  p :     0.066804
      px      :     0.015902
      py      :     0.018466
 27 H s       :     0.918394  s :     0.918394
      pz      :     0.010936  p :     0.063911
      px      :     0.011878
      py      :     0.041098
 28 H s       :     0.894626  s :     0.894626
      pz      :     0.025968  p :     0.070081
      px      :     0.026723
      py      :     0.017390
 29 H s       :     0.899015  s :     0.899015
      pz      :     0.018798  p :     0.066833
      px      :     0.013212
      py      :     0.034824
 30 H s       :     0.899960  s :     0.899960
      pz      :     0.013895  p :     0.066753
      px      :     0.034843
      py      :     0.018015


                      *****************************
                      * MAYER POPULATION ANALYSIS *
                      *****************************

  NA   - Mulliken gross atomic population
  ZA   - Total nuclear charge
  QA   - Mulliken gross atomic charge
  VA   - Mayer's total valence
  BVA  - Mayer's bonded valence
  FA   - Mayer's free valence

  ATOM       NA         ZA         QA         VA         BVA        FA
  0 C      6.0143     6.0000    -0.0143     3.8595     3.8595    -0.0000
  1 C      6.0194     6.0000    -0.0194     3.8686     3.8686    -0.0000
  2 C      6.0255     6.0000    -0.0255     3.8963     3.8963    -0.0000
  3 C      6.1319     6.0000    -0.1319     3.9644     3.9644    -0.0000
  4 C      6.0097     6.0000    -0.0097     3.8893     3.8893     0.0000
  5 C      6.0180     6.0000    -0.0180     3.8739     3.8739    -0.0000
  6 H      0.9768     1.0000     0.0232     0.9840     0.9840     0.0000
  7 H      0.9875     1.0000     0.0125     0.9927     0.9927    -0.0000
  8 C      5.7142     6.0000     0.2858     3.8716     3.8716     0.0000
  9 O      8.4448     8.0000    -0.4448     2.0603     2.0603    -0.0000
 10 C      5.8176     6.0000     0.1824     3.9968     3.9968     0.0000
 11 C      6.1029     6.0000    -0.1029     4.0507     4.0507    -0.0000
 12 C      5.9910     6.0000     0.0090     3.8712     3.8712    -0.0000
 13 C      6.0787     6.0000    -0.0787     4.1753     4.1753     0.0000
 14 O      8.2315     8.0000    -0.2315     2.2300     2.2300    -0.0000
 15 C      5.7519     6.0000     0.2481     3.8608     3.8608     0.0000
 16 O      8.3384     8.0000    -0.3384     2.1112     2.1112     0.0000
 17 H      0.8162     1.0000     0.1838     1.0556     1.0556    -0.0000
 18 H      0.9560     1.0000     0.0440     0.9873     0.9873     0.0000
 19 H      0.9721     1.0000     0.0279     1.0123     1.0123     0.0000
 20 H      0.9398     1.0000     0.0602     0.9918     0.9918     0.0000
 21 H      0.9598     1.0000     0.0402     1.0129     1.0129    -0.0000
 22 H      0.9566     1.0000     0.0434     0.9816     0.9816    -0.0000
 23 H      0.9476     1.0000     0.0524     0.9952     0.9952     0.0000
 24 H      0.9589     1.0000     0.0411     0.9846     0.9846    -0.0000
 25 H      0.9743     1.0000     0.0257     0.9865     0.9865    -0.0000
 26 H      0.9690     1.0000     0.0310     1.0046     1.0046     0.0000
 27 H      0.9766     1.0000     0.0234     0.9841     0.9841     0.0000
 28 H      0.9661     1.0000     0.0339     1.0219     1.0219    -0.0000
 29 H      0.9768     1.0000     0.0232     0.9843     0.9843     0.0000
 30 H      0.9761     1.0000     0.0239     0.9839     0.9839    -0.0000

  Mayer bond orders larger than 0.100000
B(  0-C ,  1-C ) :   1.4053 B(  0-C ,  5-C ) :   1.3901 B(  0-C , 30-H ) :   0.9889 
B(  1-C ,  2-C ) :   1.3838 B(  1-C , 29-H ) :   0.9890 B(  2-C ,  3-C ) :   1.4253 
B(  2-C , 28-H ) :   0.9800 B(  3-C ,  4-C ) :   1.3893 B(  3-C ,  8-C ) :   1.0290 
B(  4-C ,  5-C ) :   1.4077 B(  4-C ,  7-H ) :   0.9916 B(  5-C ,  6-H ) :   0.9882 
B(  8-C ,  9-O ) :   0.9410 B(  8-C , 26-H ) :   0.9380 B(  8-C , 27-H ) :   0.9333 
B(  9-O , 10-C ) :   0.9596 B( 10-C , 11-C ) :   1.0610 B( 10-C , 24-H ) :   0.9585 
B( 10-C , 25-H ) :   0.9498 B( 11-C , 12-C ) :   1.0595 B( 11-C , 22-H ) :   0.9469 
B( 11-C , 23-H ) :   0.9446 B( 12-C , 13-C ) :   0.9562 B( 12-C , 20-H ) :   0.9270 
B( 12-C , 21-H ) :   0.9413 B( 13-C , 14-O ) :   2.0864 B( 13-C , 15-C ) :   0.9556 
B( 15-C , 16-O ) :   1.0545 B( 15-C , 18-H ) :   0.9283 B( 15-C , 19-H ) :   0.9350 
B( 16-O , 17-H ) :   0.9491 

-------
TIMINGS
-------

Total SCF time: 0 days 0 hours 2 min 16 sec 

Total time                  ....     136.851 sec
Sum of individual times     ....     136.593 sec  ( 99.8%)

Fock matrix formation       ....     133.671 sec  ( 97.7%)
  XC integration            ....       5.760 sec  (  4.3% of F)
    Basis function eval.    ....       1.790 sec  ( 31.1% of XC)
    Density eval.           ....       1.204 sec  ( 20.9% of XC)
    XC-Functional eval.     ....       1.238 sec  ( 21.5% of XC)
    XC-Potential eval.      ....       1.371 sec  ( 23.8% of XC)
Diagonalization             ....       0.013 sec  (  0.0%)
Density matrix formation    ....       0.010 sec  (  0.0%)
Population analysis         ....       0.010 sec  (  0.0%)
Initial guess               ....       0.012 sec  (  0.0%)
Orbital Transformation      ....       0.000 sec  (  0.0%)
Orbital Orthonormalization  ....       0.009 sec  (  0.0%)
DIIS solution               ....       0.003 sec  (  0.0%)
SOSCF solution              ....       0.039 sec  (  0.0%)
Grid generation             ....       2.834 sec  (  2.1%)


-------------------------------------------------------------------------------
                          DFT DISPERSION CORRECTION                            
                                                                               
                              DFTD3 V3.1  Rev 1                                
                              USING zero damping                               
-------------------------------------------------------------------------------
The omegaB97X-D3 functional is recognized. Fit by Chai et al.
Active option DFTDOPT                   ...         3   

molecular C6(AA) [au] = 8908.601627 


            DFT-D V3
 parameters
 s6 scaling factor         :     1.0000 
 rs6 scaling factor        :     1.2810 
 s8 scaling factor         :     1.0000 
 rs8 scaling factor        :     1.0940 
 Damping factor alpha6     :    14.0000 
 Damping factor alpha8     :    16.0000 
 ad hoc parameters k1-k3   :    16.0000     1.3333    -4.0000 

 Edisp/kcal,au: -9.870812511543  -0.015730139331 
 E6   /kcal   :  -4.400785996 
 E8   /kcal   :  -5.470026516 
 % E8         :  55.416172778 

-------------------------   ----------------
Dispersion correction           -0.015730139
-------------------------   ----------------


-------------------------   --------------------
FINAL SINGLE POINT ENERGY      -691.886343345398
-------------------------   --------------------

                                *** OPTIMIZATION RUN DONE ***

                            ***************************************
                            *     ORCA property calculations      *
                            ***************************************

                                    ---------------------
                                    Active property flags
                                    ---------------------
   (+) Dipole Moment


------------------------------------------------------------------------------
                       ORCA ELECTRIC PROPERTIES CALCULATION
------------------------------------------------------------------------------

Dipole Moment Calculation                       ... on
Quadrupole Moment Calculation                   ... off
Polarizability Calculation                      ... off
GBWName                                         ... 044477899.gbw
Electron density file                           ... 044477899.scfp
The origin for moment calculation is the CENTER OF MASS  = (-0.003060, -0.003283  0.011275)

-------------
DIPOLE MOMENT
-------------
                                X             Y             Z
Electronic contribution:     -4.90856      -2.44746      -0.33663
Nuclear contribution   :      5.17072       3.22060       0.25600
                        -----------------------------------------
Total Dipole Moment    :      0.26217       0.77314      -0.08063
                        -----------------------------------------
Magnitude (a.u.)       :      0.82035
Magnitude (Debye)      :      2.08518



--------------------
Rotational spectrum 
--------------------
 
Rotational constants in cm-1:     0.034707     0.013683     0.012356 
Rotational constants in MHz :  1040.489770   410.212696   370.436383 

 Dipole components along the rotational axes: 
x,y,z [a.u.] :     0.248544     0.772906    -0.117575 
x,y,z [Debye]:     0.631749     1.964571    -0.298853 

 

Timings for individual modules:

Sum of individual times         ...     4927.556 sec (=  82.126 min)
GTO integral calculation        ...        4.853 sec (=   0.081 min)   0.1 %
SCF iterations                  ...     3312.883 sec (=  55.215 min)  67.2 %
SCF Gradient evaluation         ...     1607.144 sec (=  26.786 min)  32.6 %
Geometry relaxation             ...        2.677 sec (=   0.045 min)   0.1 %
                             ****ORCA TERMINATED NORMALLY****
TOTAL RUN TIME: 0 days 1 hours 22 minutes 10 seconds 205 msec
