
                                 *****************
                                 * O   R   C   A *
                                 *****************

           --- An Ab Initio, DFT and Semiempirical electronic structure package ---

                  #######################################################
                  #                        -***-                        #
                  #          Department of theory and spectroscopy      #
                  #               Directorship: Frank Neese             #
                  #        Max Planck Institute fuer Kohlenforschung    #
                  #                Kaiser Wilhelm Platz 1               #
                  #                 D-45470 Muelheim/Ruhr               #
                  #                      Germany                        #
                  #                                                     #
                  #                  All rights reserved                #
                  #                        -***-                        #
                  #######################################################


                         Program Version 4.2.0 -  RELEASE  -


 With contributions from (in alphabetic order):
   Daniel Aravena         : Magnetic Suceptibility
   Michael Atanasov       : Ab Initio Ligand Field Theory (pilot matlab implementation)
   Alexander A. Auer      : GIAO ZORA, VPT2
   Ute Becker             : Parallelization
   Giovanni Bistoni       : ED, misc. LED, open-shell LED, HFLED
   Martin Brehm           : Molecular dynamics
   Dmytro Bykov           : SCF Hessian
   Vijay G. Chilkuri      : MRCI spin determinant printing, contributions to CSF-ICE
   Dipayan Datta          : RHF DLPNO-CCSD density
   Achintya Kumar Dutta   : EOM-CC, STEOM-CC
   Dmitry Ganyushin       : Spin-Orbit,Spin-Spin,Magnetic field MRCI
   Miquel Garcia          : C-PCM Hessian, Gaussian charge scheme
   Yang Guo               : DLPNO-NEVPT2, CIM, IAO-localization
   Andreas Hansen         : Spin unrestricted coupled pair/coupled cluster methods
   Benjamin Helmich-Paris : CASSCF linear response (MC-RPA)
   Lee Huntington         : MR-EOM, pCC
   Robert Izsak           : Overlap fitted RIJCOSX, COSX-SCS-MP3, EOM
   Christian Kollmar      : KDIIS, OOCD, Brueckner-CCSD(T), CCSD density
   Simone Kossmann        : Meta GGA functionals, TD-DFT gradient, OOMP2, MP2 Hessian
   Martin Krupicka        : AUTO-CI
   Lucas Lang             : DCDCAS
   Dagmar Lenk            : GEPOL surface, SMD
   Dimitrios Liakos       : Extrapolation schemes; Compound Job, initial MDCI parallelization
   Dimitrios Manganas     : Further ROCIS development; embedding schemes
   Dimitrios Pantazis     : SARC Basis sets
   Taras Petrenko         : DFT Hessian,TD-DFT gradient, ASA, ECA, R-Raman, ABS, FL, XAS/XES, NRVS
   Peter Pinski           : DLPNO-MP2, DLPNO-MP2 Gradient
   Christoph Reimann      : Effective Core Potentials
   Marius Retegan         : Local ZFS, SOC
   Christoph Riplinger    : Optimizer, TS searches, QM/MM, DLPNO-CCSD(T), (RO)-DLPNO pert. Triples
   Tobias Risthaus        : Range-separated hybrids, TD-DFT gradient, RPA, STAB
   Michael Roemelt        : Original ROCIS implementation
   Masaaki Saitow         : Open-shell DLPNO-CCSD energy and density
   Barbara Sandhoefer     : DKH picture change effects
   Avijit Sen             : IP-ROCIS
   Kantharuban Sivalingam : CASSCF convergence, NEVPT2, FIC-MRCI
   Bernardo de Souza      : ESD, SOC TD-DFT
   Georgi Stoychev        : AutoAux, RI-MP2 NMR
   Willem Van den Heuvel  : Paramagnetic NMR
   Boris Wezisla          : Elementary symmetry handling
   Frank Wennmohs         : Technical directorship


 We gratefully acknowledge several colleagues who have allowed us to
 interface, adapt or use parts of their codes:
   Stefan Grimme, W. Hujo, H. Kruse,             : VdW corrections, initial TS optimization,
                  C. Bannwarth                     DFT functionals, gCP, sTDA/sTD-DF
   Ed Valeev, F. Pavosevic, A. Kumar             : LibInt (2-el integral package), F12 methods
   Garnet Chan, S. Sharma, J. Yang, R. Olivares  : DMRG
   Ulf Ekstrom                                   : XCFun DFT Library
   Mihaly Kallay                                 : mrcc  (arbitrary order and MRCC methods)
   Andreas Klamt, Michael Diedenhofen            : otool_cosmo (COSMO solvation model)
   Jiri Pittner, Ondrej Demel                    : Mk-CCSD
   Frank Weinhold                                : gennbo (NPA and NBO analysis)
   Christopher J. Cramer and Donald G. Truhlar   : smd solvation model
   Lars Goerigk                                  : TD-DFT with DH, B97 family of functionals
   V. Asgeirsson, H. Jonsson                     : NEB implementation
   FAccTs GmbH                                   : IRC, NEB, NEB-TS, Multilevel, MM, QM/MM, CI optimization
   S Lehtola, MJT Oliveira, MAL Marques          : LibXC Library


 Your calculation uses the libint2 library for the computation of 2-el integrals
 For citations please refer to: http://libint.valeyev.net

 Your ORCA version has been built with support for libXC version: 4.2.3
 For citations please refer to: https://tddft.org/programs/libxc/

 This ORCA versions uses:
   CBLAS   interface :  Fast vector & matrix operations
   LAPACKE interface :  Fast linear algebra routines
   SCALAPACK package :  Parallel linear algebra routines


Your calculation utilizes the atom-pairwise dispersion correction
with the zero-damping scheme (D30)
Cite in your paper:
S.Grimme, J.Antony, S.Ehrlich and H.Krieg, J.Chem.Phys., 132, (2010), 154104 
   

XCFun DFT library Copyright 2009-2010 Ulf Ekstrom and contributors.
See http://admol.org/xcfun for more information. This is free soft-
ware; see the source code for copying conditions. There is ABSOLUTELY
NO WARRANTY; not even for MERCHANTABILITY or FITNESS FOR A PARTICULAR
PURPOSE. For details see the documentation. Scientific users of this 
library should cite U. Ekstrom, L. Visscher, R. Bast, A. J. Thorvald-
sen and K. Ruud; J.Chem.Theor.Comp. 2010, DOI: 10.1021/ct100117s
XCFun Version 0.99 
----- Orbital basis set information -----
Your calculation utilizes the basis: def2-SVP
   F. Weigend and R. Ahlrichs, Phys. Chem. Chem. Phys. 7, 3297 (2005).

================================================================================
                                        WARNINGS
                       Please study these warnings very carefully!
================================================================================


WARNING: Geometry Optimization
  ===> : Switching off AutoStart
         For restart on a previous wavefunction, please use MOREAD

INFO   : the flag for use of LIBINT has been found!

================================================================================
                                       INPUT FILE
================================================================================
NAME = 063041359.inp
|  1> # ORCA input file
|  2> # -34.38548412
|  3> ! wB97X-D3 def2-SVP Opt
|  4> * xyz 0 1
|  5>    C       -2.23930        -0.18520        -0.92060
|  6>    C       -2.35240        -0.05910         0.42930
|  7>    O       -1.26490        -0.54640         1.04590
|  8>    C       -0.42150        -0.97970         0.08070
|  9>    C       -0.98530        -0.79520        -1.14920
| 10>    H       -0.54670        -1.04930        -2.09230
| 11>    C        0.88270        -1.59310         0.48690
| 12>    O        1.98370        -1.14170        -0.27130
| 13>    C        2.47400         0.13570         0.05160
| 14>    C        1.61350         1.30370        -0.44790
| 15>    C        0.42680         1.61120         0.42210
| 16>    O       -0.61220         2.07820         0.04490
| 17>    H        0.61210         1.43180         1.50170
| 18>    H        2.23240         2.20640        -0.43860
| 19>    H        1.28770         1.12770        -1.47380
| 20>    H        3.45210         0.17720        -0.43480
| 21>    H        2.61730         0.22490         1.14030
| 22>    H        0.85700        -2.67560         0.31640
| 23>    H        1.04250        -1.40970         1.55960
| 24>    H       -3.12590         0.34720         1.04920
| 25>    H       -2.95130         0.12150        -1.65810
| 26> *
| 27> 
| 28>                          ****END OF INPUT****
================================================================================

                       *****************************
                       * Geometry Optimization Run *
                       *****************************

Geometry optimization settings:
Update method            Update   .... BFGS
Choice of coordinates    CoordSys .... Z-matrix Internals
Initial Hessian          InHess   .... Almoef's Model

Convergence Tolerances:
Energy Change            TolE     ....  5.0000e-06 Eh
Max. Gradient            TolMAXG  ....  3.0000e-04 Eh/bohr
RMS Gradient             TolRMSG  ....  1.0000e-04 Eh/bohr
Max. Displacement        TolMAXD  ....  4.0000e-03 bohr
RMS Displacement         TolRMSD  ....  2.0000e-03 bohr
Strict Convergence                ....  False
------------------------------------------------------------------------------
                        ORCA OPTIMIZATION COORDINATE SETUP
------------------------------------------------------------------------------

The optimization will be done in new redundant internal coordinates
Making redundant internal coordinates   ...  (new redundants) done
Evaluating the initial hessian          ...  (Almloef) done
Evaluating the coordinates              ...  done
Calculating the B-matrix                .... done
Calculating the G-matrix                .... done
Diagonalizing the G-matrix              .... done
Small eigenvalue found = 5.702e-03
Small eigenvalue found = 1.076e-02
The first mode is                       ....   42
The number of degrees of freedom        ....   57

    -----------------------------------------------------------------
                    Redundant Internal Coordinates


    -----------------------------------------------------------------
         Definition                    Initial Value    Approx d2E/dq
    -----------------------------------------------------------------
      1. B(C   1,C   0)                  1.3605         0.696347   
      2. B(O   2,C   1)                  1.3418         0.668103   
      3. B(C   3,O   2)                  1.3530         0.641007   
      4. B(C   4,C   3)                  1.3655         0.683662   
      5. B(C   4,C   0)                  1.4131         0.573946   
      6. B(H   5,C   4)                  1.0707         0.386574   
      7. B(C   6,C   3)                  1.4974         0.421109   
      8. B(O   7,C   6)                  1.4110         0.518111   
      9. B(C   8,O   7)                  1.4058         0.527947   
     10. B(C   9,C   8)                  1.5343         0.367672   
     11. B(C  10,C   9)                  1.5032         0.412174   
     12. B(O  11,C  10)                  1.2000         1.124816   
     13. B(H  12,C  10)                  1.1100         0.334615   
     14. B(H  13,C   9)                  1.0945         0.354160   
     15. B(H  14,C   9)                  1.0907         0.359196   
     16. B(H  15,C   8)                  1.0932         0.355951   
     17. B(H  16,C   8)                  1.1017         0.344941   
     18. B(H  17,C   6)                  1.0961         0.352060   
     19. B(H  18,C   6)                  1.0999         0.347194   
     20. B(H  19,C   1)                  1.0713         0.385724   
     21. B(H  20,C   0)                  1.0700         0.387544   
     22. A(C   1,C   0,H  20)          127.0133         0.364479   
     23. A(C   1,C   0,C   4)          105.9200         0.437121   
     24. A(C   4,C   0,H  20)          127.0654         0.352686   
     25. A(C   0,C   1,H  19)          132.0149         0.364186   
     26. A(C   0,C   1,O   2)          110.7891         0.446334   
     27. A(O   2,C   1,H  19)          117.1957         0.359376   
     28. A(C   1,O   2,C   3)          107.0799         0.436813   
     29. A(C   4,C   3,C   6)          131.2468         0.412211   
     30. A(O   2,C   3,C   4)          109.9917         0.441531   
     31. A(O   2,C   3,C   6)          118.7239         0.404911   
     32. A(C   3,C   4,H   5)          126.3108         0.363180   
     33. A(C   0,C   4,H   5)          127.4782         0.352536   
     34. A(C   0,C   4,C   3)          106.2018         0.435676   
     35. A(O   7,C   6,H  18)          110.9374         0.338248   
     36. A(C   3,C   6,H  18)          108.8316         0.328796   
     37. A(O   7,C   6,H  17)          104.5160         0.339034   
     38. A(C   3,C   6,H  17)          109.9944         0.329553   
     39. A(C   3,C   6,O   7)          113.7542         0.390053   
     40. A(H  17,C   6,H  18)          108.6485         0.288159   
     41. A(C   6,O   7,C   8)          116.0662         0.403253   
     42. A(H  15,C   8,H  16)          108.6776         0.288361   
     43. A(C   9,C   8,H  16)          109.4521         0.321201   
     44. A(O   7,C   8,H  16)          110.2369         0.338942   
     45. A(O   7,C   8,C   9)          114.9181         0.382192   
     46. A(C   9,C   8,H  15)          109.1504         0.322858   
     47. A(O   7,C   8,H  15)          104.1433         0.340726   
     48. A(C   8,C   9,C  10)          114.2075         0.368516   
     49. A(H  13,C   9,H  14)          108.0582         0.289967   
     50. A(C  10,C   9,H  14)          109.9727         0.329478   
     51. A(C   8,C   9,H  14)          110.5423         0.323339   
     52. A(C  10,C   9,H  13)          105.8285         0.328710   
     53. A(C   8,C   9,H  13)          107.9351         0.322591   
     54. A(C   9,C  10,H  12)          113.4571         0.325650   
     55. A(C   9,C  10,O  11)          125.5367         0.446053   
     56. A(O  11,C  10,H  12)          120.8766         0.383579   
     57. D(H  19,C   1,C   0,H  20)      0.1196         0.034122   
     58. D(O   2,C   1,C   0,C   4)     -0.0769         0.034122   
     59. D(O   2,C   1,C   0,H  20)   -179.6699         0.034122   
     60. D(H  19,C   1,C   0,C   4)    179.7127         0.034122   
     61. D(C   3,O   2,C   1,H  19)   -178.9616         0.033142   
     62. D(C   3,O   2,C   1,C   0)      0.8626         0.033142   
     63. D(C   4,C   3,O   2,C   1)     -1.3414         0.030299   
     64. D(C   6,C   3,O   2,C   1)   -179.3601         0.030299   
     65. D(C   0,C   4,C   3,C   6)    178.9741         0.032791   
     66. D(C   0,C   4,C   3,O   2)      1.2851         0.032791   
     67. D(H   5,C   4,C   0,H  20)     -0.0783         0.022610   
     68. D(C   3,C   4,C   0,H  20)    178.8642         0.022610   
     69. D(H   5,C   4,C   0,C   1)   -179.6710         0.022610   
     70. D(H   5,C   4,C   3,O   2)   -179.7564         0.032791   
     71. D(C   3,C   4,C   0,C   1)     -0.7285         0.022610   
     72. D(H   5,C   4,C   3,C   6)     -2.0674         0.032791   
     73. D(H  18,C   6,C   3,C   4)    171.0894         0.013111   
     74. D(H  18,C   6,C   3,O   2)    -11.3872         0.013111   
     75. D(H  17,C   6,C   3,C   4)    -69.9893         0.013111   
     76. D(H  17,C   6,C   3,O   2)    107.5341         0.013111   
     77. D(O   7,C   6,C   3,C   4)     46.8538         0.013111   
     78. D(O   7,C   6,C   3,O   2)   -135.6228         0.013111   
     79. D(C   8,O   7,C   6,H  18)    -45.9631         0.021276   
     80. D(C   8,O   7,C   6,H  17)   -162.8815         0.021276   
     81. D(C   8,O   7,C   6,C   3)     77.1288         0.021276   
     82. D(H  16,C   8,O   7,C   6)     48.7599         0.022127   
     83. D(H  15,C   8,O   7,C   6)    165.1754         0.022127   
     84. D(C   9,C   8,O   7,C   6)    -75.4778         0.022127   
     85. D(C  10,C   9,C   8,H  16)    -43.6426         0.010815   
     86. D(C  10,C   9,C   8,H  15)   -162.4699         0.010815   
     87. D(C  10,C   9,C   8,O   7)     81.0081         0.010815   
     88. D(H  14,C   9,C   8,H  16)   -168.2815         0.010815   
     89. D(H  14,C   9,C   8,H  15)     72.8912         0.010815   
     90. D(H  14,C   9,C   8,O   7)    -43.6308         0.010815   
     91. D(H  13,C   9,C   8,H  16)     73.7344         0.010815   
     92. D(H  13,C   9,C   8,H  15)    -45.0929         0.010815   
     93. D(H  13,C   9,C   8,O   7)   -161.6150         0.010815   
     94. D(H  12,C  10,C   9,H  13)    -84.9338         0.012578   
     95. D(H  12,C  10,C   9,C   8)     33.6467         0.012578   
     96. D(O  11,C  10,C   9,H  14)    -25.5436         0.012578   
     97. D(O  11,C  10,C   9,H  13)     90.9344         0.012578   
     98. D(H  12,C  10,C   9,H  14)    158.5881         0.012578   
     99. D(O  11,C  10,C   9,C   8)   -150.4850         0.012578   
    -----------------------------------------------------------------

Number of atoms                         .... 21
Number of degrees of freedom            .... 99

         *************************************************************
         *                GEOMETRY OPTIMIZATION CYCLE   1            *
         *************************************************************
---------------------------------
CARTESIAN COORDINATES (ANGSTROEM)
---------------------------------
  C     -2.239300   -0.185200   -0.920600
  C     -2.352400   -0.059100    0.429300
  O     -1.264900   -0.546400    1.045900
  C     -0.421500   -0.979700    0.080700
  C     -0.985300   -0.795200   -1.149200
  H     -0.546700   -1.049300   -2.092300
  C      0.882700   -1.593100    0.486900
  O      1.983700   -1.141700   -0.271300
  C      2.474000    0.135700    0.051600
  C      1.613500    1.303700   -0.447900
  C      0.426800    1.611200    0.422100
  O     -0.612200    2.078200    0.044900
  H      0.612100    1.431800    1.501700
  H      2.232400    2.206400   -0.438600
  H      1.287700    1.127700   -1.473800
  H      3.452100    0.177200   -0.434800
  H      2.617300    0.224900    1.140300
  H      0.857000   -2.675600    0.316400
  H      1.042500   -1.409700    1.559600
  H     -3.125900    0.347200    1.049200
  H     -2.951300    0.121500   -1.658100

----------------------------
CARTESIAN COORDINATES (A.U.)
----------------------------
  NO LB      ZA    FRAG     MASS         X           Y           Z
   0 C     6.0000    0    12.011   -4.231664   -0.349977   -1.739682
   1 C     6.0000    0    12.011   -4.445392   -0.111683    0.811259
   2 O     8.0000    0    15.999   -2.390315   -1.032546    1.976465
   3 C     6.0000    0    12.011   -0.796520   -1.851365    0.152501
   4 C     6.0000    0    12.011   -1.861947   -1.502710   -2.171673
   5 H     1.0000    0     1.008   -1.033113   -1.982890   -3.953874
   6 C     6.0000    0    12.011    1.668061   -3.010523    0.920108
   7 O     8.0000    0    15.999    3.748650   -2.157500   -0.512683
   8 C     6.0000    0    12.011    4.675182    0.256436    0.097510
   9 C     6.0000    0    12.011    3.049073    2.463636   -0.846408
  10 C     6.0000    0    12.011    0.806535    3.044727    0.797653
  11 O     8.0000    0    15.999   -1.156890    3.927229    0.084849
  12 H     1.0000    0     1.008    1.156701    2.705710    2.837802
  13 H     1.0000    0     1.008    4.218625    4.169492   -0.828834
  14 H     1.0000    0     1.008    2.433400    2.131044   -2.785078
  15 H     1.0000    0     1.008    6.523524    0.334859   -0.821653
  16 H     1.0000    0     1.008    4.945980    0.424999    2.154855
  17 H     1.0000    0     1.008    1.619495   -5.056151    0.597909
  18 H     1.0000    0     1.008    1.970039   -2.663947    2.947217
  19 H     1.0000    0     1.008   -5.907095    0.656113    1.982701
  20 H     1.0000    0     1.008   -5.577149    0.229602   -3.133355

--------------------------------
INTERNAL COORDINATES (ANGSTROEM)
--------------------------------
 C      0   0   0     0.000000000000     0.00000000     0.00000000
 C      1   0   0     1.360486247634     0.00000000     0.00000000
 O      2   1   0     1.341757466907   110.78912827     0.00000000
 C      3   2   1     1.353027527436   107.07989960     0.86257406
 C      4   3   2     1.365490644421   109.99170399   358.65855586
 H      5   4   3     1.070688740951   126.31080271   180.24364779
 C      4   3   2     1.497396286893   118.72394549   180.63985518
 O      7   4   3     1.410967823871   113.75415572   224.37720918
 C      8   7   4     1.405848235052   116.06622014    77.12883866
 C      9   8   7     1.534335198058   114.91813965   284.52221283
 C     10   9   8     1.503234226593   114.20754818    81.00805555
 O     11  10   9     1.199954099122   125.53671479   209.51495093
 H     11  10   9     1.109980454783   113.45709610    33.64668987
 H     10   9   8     1.094527747478   107.93508779   198.38502506
 H     10   9   8     1.090684395231   110.54227839   316.36918310
 H      9   8   7     1.093154527045   104.14329338   165.17542157
 H      9   8   7     1.101707411249   110.23689540    48.75986518
 H      7   4   3     1.096146427262   109.99444153   107.53407665
 H      7   4   3     1.099934948076   108.83161811   348.61280830
 H      2   1   3     1.071287986491   132.01485495   179.78952758
 H      1   2   3     1.070007074743   127.01326065   180.33009686

---------------------------
INTERNAL COORDINATES (A.U.)
---------------------------
 C      0   0   0     0.000000000000     0.00000000     0.00000000
 C      1   0   0     2.570946416994     0.00000000     0.00000000
 O      2   1   0     2.535554150598   110.78912827     0.00000000
 C      3   2   1     2.556851478511   107.07989960     0.86257406
 C      4   3   2     2.580403356386   109.99170399   358.65855586
 H      5   4   3     2.023308495071   126.31080271   180.24364779
 C      4   3   2     2.829668896178   118.72394549   180.63985518
 O      7   4   3     2.666342770892   113.75415572   224.37720918
 C      8   7   4     2.656668150106   116.06622014    77.12883866
 C      9   8   7     2.899473321966   114.91813965   284.52221283
 C     10   9   8     2.840701003397   114.20754818    81.00805555
 O     11  10   9     2.267584620617   125.53671479   209.51495093
 H     11  10   9     2.097559073545   113.45709610    33.64668987
 H     10   9   8     2.068357688712   107.93508779   198.38502506
 H     10   9   8     2.061094805528   110.54227839   316.36918310
 H      9   8   7     2.065762678172   104.14329338   165.17542157
 H      9   8   7     2.081925286971   110.23689540    48.75986518
 H      7   4   3     2.071416550202   109.99444153   107.53407665
 H      7   4   3     2.078575816993   108.83161811   348.61280830
 H      2   1   3     2.024440905028   132.01485495   179.78952758
 H      1   2   3     2.022020332622   127.01326065   180.33009686

---------------------
BASIS SET INFORMATION
---------------------
There are 3 groups of distinct atoms

 Group   1 Type C   : 7s4p1d contracted to 3s2p1d pattern {511/31/1}
 Group   2 Type O   : 7s4p1d contracted to 3s2p1d pattern {511/31/1}
 Group   3 Type H   : 4s1p contracted to 2s1p pattern {31/1}

Atom   0C    basis set group =>   1
Atom   1C    basis set group =>   1
Atom   2O    basis set group =>   2
Atom   3C    basis set group =>   1
Atom   4C    basis set group =>   1
Atom   5H    basis set group =>   3
Atom   6C    basis set group =>   1
Atom   7O    basis set group =>   2
Atom   8C    basis set group =>   1
Atom   9C    basis set group =>   1
Atom  10C    basis set group =>   1
Atom  11O    basis set group =>   2
Atom  12H    basis set group =>   3
Atom  13H    basis set group =>   3
Atom  14H    basis set group =>   3
Atom  15H    basis set group =>   3
Atom  16H    basis set group =>   3
Atom  17H    basis set group =>   3
Atom  18H    basis set group =>   3
Atom  19H    basis set group =>   3
Atom  20H    basis set group =>   3
------------------------------------------------------------------------------
                           ORCA GTO INTEGRAL CALCULATION
------------------------------------------------------------------------------

                         BASIS SET STATISTICS AND STARTUP INFO

 # of primitive gaussian shells          ...  182
 # of primitive gaussian functions       ...  334
 # of contracted shells                  ...   96
 # of contracted basis functions         ...  204
 Highest angular momentum                ...    2
 Maximum contraction depth               ...    5
 Integral package used                   ... LIBINT
 Integral threshhold            Thresh   ...  2.500e-11
 Primitive cut-off              TCut     ...  2.500e-12


------------------------------ INTEGRAL EVALUATION ----------------------------


 * One electron integrals 
 Pre-screening matrix                    ... done
 Shell pair data                         ... done (   0.001 sec)

-------------------------------------------------------------------------------
                                 ORCA SCF
-------------------------------------------------------------------------------

------------
SCF SETTINGS
------------
Hamiltonian:
 Density Functional     Method          .... DFT(GTOs)
 Exchange Functional    Exchange        .... WB97X-D3
 Correlation Functional Correlation     .... WB97X-D3
 Gradients option       PostSCFGGA      .... off
 Hybrid DFT is turned on
   Fraction HF Exchange ScalHFX         ....  0.195728
   Scaling of DF-GGA-X  ScalDFX         ....  0.000000
   Scaling of DF-GGA-C  ScalDFC         ....  1.000000
   Scaling of DF-LDA-C  ScalLDAC        ....  1.000000
   Perturbative correction              ....  0.000000
   Density functional embedding theory  .... OFF
 Long-range corrected/Screened/Range-Separated Hybrid DFT is turned on
   Amount of maximum screened exact exchange              ....  0.804272
   Range separation parameter mu (erf(mu*r12)/r12)        ....  0.250000


General Settings:
 Integral files         IntName         .... 063041359
 Hartree-Fock type      HFTyp           .... RHF
 Total Charge           Charge          ....    0
 Multiplicity           Mult            ....    1
 Number of Electrons    NEL             ....   82
 Basis Dimension        Dim             ....  204
 Nuclear Repulsion      ENuc            ....    645.1479385426 Eh

Convergence Acceleration:
 DIIS                   CNVDIIS         .... on
   Start iteration      DIISMaxIt       ....    12
   Startup error        DIISStart       ....  0.200000
   # of expansion vecs  DIISMaxEq       ....     5
   Bias factor          DIISBfac        ....   1.050
   Max. coefficient     DIISMaxC        ....  10.000
 Newton-Raphson         CNVNR           .... off
 SOSCF                  CNVSOSCF        .... on
   Start iteration      SOSCFMaxIt      ....   150
   Startup grad/error   SOSCFStart      ....  0.003300
 Level Shifting         CNVShift        .... on
   Level shift para.    LevelShift      ....    0.2500
   Turn off err/grad.   ShiftErr        ....    0.0010
 Zerner damping         CNVZerner       .... off
 Static damping         CNVDamp         .... on
   Fraction old density DampFac         ....    0.7000
   Max. Damping (<1)    DampMax         ....    0.9800
   Min. Damping (>=0)   DampMin         ....    0.0000
   Turn off err/grad.   DampErr         ....    0.1000
 Fernandez-Rico         CNVRico         .... off

SCF Procedure:
 Maximum # iterations   MaxIter         ....   125
 SCF integral mode      SCFMode         .... Direct
   Integral package                     .... LIBINT
 Reset frequency        DirectResetFreq ....    20
 Integral Threshold     Thresh          ....  2.500e-11 Eh
 Primitive CutOff       TCut            ....  2.500e-12 Eh

Convergence Tolerance:
 Convergence Check Mode ConvCheckMode   .... Total+1el-Energy
 Convergence forced     ConvForced      .... 0
 Energy Change          TolE            ....  1.000e-08 Eh
 1-El. energy change                    ....  1.000e-05 Eh
 Orbital Gradient       TolG            ....  1.000e-05
 Orbital Rotation angle TolX            ....  1.000e-05
 DIIS Error             TolErr          ....  5.000e-07


Diagonalization of the overlap matrix:
Smallest eigenvalue                        ... 5.779e-04
Time for diagonalization                   ...    0.006 sec
Threshold for overlap eigenvalues          ... 1.000e-08
Number of eigenvalues below threshold      ... 0
Time for construction of square roots      ...    0.003 sec
Total time needed                          ...    0.009 sec

-------------------
DFT GRID GENERATION
-------------------

General Integration Accuracy     IntAcc      ...  4.340
Radial Grid Type                 RadialGrid  ... Gauss-Chebyshev
Angular Grid (max. acc.)         AngularGrid ... Lebedev-110
Angular grid pruning method      GridPruning ... 3 (G Style)
Weight generation scheme         WeightScheme... Becke
Basis function cutoff            BFCut       ...    1.0000e-11
Integration weight cutoff        WCut        ...    1.0000e-14
Grids for H and He will be reduced by one unit

# of grid points (after initial pruning)     ...  26336 (   0.0 sec)
# of grid points (after weights+screening)   ...  23915 (   0.1 sec)
nearest neighbour list constructed           ...    0.0 sec
Grid point re-assignment to atoms done       ...    0.0 sec
Grid point division into batches done        ...    0.0 sec
Reduced shell lists constructed in    0.2 sec

Total number of grid points                  ...    23915
Total number of batches                      ...      384
Average number of points per batch           ...       62
Average number of grid points per atom       ...     1139
Average number of shells per batch           ...    67.38 (70.19%)
Average number of basis functions per batch  ...   140.30 (68.78%)
Average number of large shells per batch     ...    50.82 (75.43%)
Average number of large basis fcns per batch ...   102.87 (73.32%)
Maximum spatial batch extension              ...  18.28, 25.60, 18.58 au
Average spatial batch extension              ...   3.66,  3.86,  3.71 au

Time for grid setup =    0.256 sec

------------------------------
INITIAL GUESS: MODEL POTENTIAL
------------------------------
Loading Hartree-Fock densities                     ... done
Calculating cut-offs                               ... done
Setting up the integral package                    ... done
Initializing the effective Hamiltonian             ... done
Starting the Coulomb interaction                   ... done (   0.2 sec)
Reading the grid                                   ... done
Mapping shells                                     ... done
Starting the XC term evaluation                    ... done (   0.3 sec)
  promolecular density results
     # of electrons  =     82.006737050
     EX              =    -68.360905511
     EC              =     -2.752733489
     EX+EC           =    -71.113639000
Transforming the Hamiltonian                       ... done (   0.0 sec)
Diagonalizing the Hamiltonian                      ... done (   0.0 sec)
Back transforming the eigenvectors                 ... done (   0.0 sec)
Now organizing SCF variables                       ... done
                      ------------------
                      INITIAL GUESS DONE (   0.8 sec)
                      ------------------
--------------
SCF ITERATIONS
--------------
ITER       Energy         Delta-E        Max-DP      RMS-DP      [F,P]     Damp
               ***  Starting incremental Fock matrix formation  ***
  0   -535.7133616332   0.000000000000 0.10478192  0.00193743  0.2188504 0.7000
  1   -535.8051343676  -0.091772734401 0.07365062  0.00138265  0.1041895 0.7000
                               ***Turning on DIIS***
  2   -535.8492476982  -0.044113330672 0.09583003  0.00255901  0.0383067 0.0000
  3   -535.9241381954  -0.074890497162 0.07017063  0.00099959  0.0547875 0.0000
  4   -535.9345027371  -0.010364541696 0.00928661  0.00020949  0.0120323 0.0000
  5   -535.9349680675  -0.000465330391 0.00538499  0.00008822  0.0051179 0.0000
                      *** Initiating the SOSCF procedure ***
                           *** Shutting down DIIS ***
                      *** Re-Reading the Fockian *** 
                      *** Removing any level shift *** 
ITER      Energy       Delta-E        Grad      Rot      Max-DP    RMS-DP
  6   -535.93503285  -0.0000647809  0.000598  0.000598  0.003679  0.000062
               *** Restarting incremental Fock matrix formation ***
  7   -535.93504591  -0.0000130660  0.000163  0.000378  0.001915  0.000027
  8   -535.93504684  -0.0000009217  0.000310  0.000336  0.000502  0.000009
  9   -535.93504819  -0.0000013489  0.000031  0.000112  0.000210  0.000004
 10   -535.93504821  -0.0000000274  0.000029  0.000034  0.000055  0.000001
 11   -535.93504825  -0.0000000326  0.000007  0.000012  0.000014  0.000000
 12   -535.93504825  -0.0000000024  0.000003  0.000008  0.000008  0.000000
                  ***Gradient check signals convergence***
              ***Rediagonalizing the Fockian in SOSCF/NRSCF***

               *****************************************************
               *                     SUCCESS                       *
               *           SCF CONVERGED AFTER  13 CYCLES          *
               *****************************************************

Setting up the final grid:

General Integration Accuracy     IntAcc      ...  4.670
Radial Grid Type                 RadialGrid  ... Gauss-Chebyshev
Angular Grid (max. acc.)         AngularGrid ... Lebedev-302
Angular grid pruning method      GridPruning ... 3 (G Style)
Weight generation scheme         WeightScheme... Becke
Basis function cutoff            BFCut       ...    1.0000e-11
Integration weight cutoff        WCut        ...    1.0000e-14
Grids for H and He will be reduced by one unit

# of grid points (after initial pruning)     ... 102272 (   0.0 sec)
# of grid points (after weights+screening)   ...  91183 (   0.3 sec)
nearest neighbour list constructed           ...    0.0 sec
Grid point re-assignment to atoms done       ...    0.0 sec
Grid point division into batches done        ...    0.3 sec
Reduced shell lists constructed in    0.9 sec

Total number of grid points                  ...    91183
Total number of batches                      ...     1433
Average number of points per batch           ...       63
Average number of grid points per atom       ...     4342
Average number of shells per batch           ...    61.34 (63.90%)
Average number of basis functions per batch  ...   126.09 (61.81%)
Average number of large shells per batch     ...    45.25 (73.77%)
Average number of large basis fcns per batch ...    90.46 (71.75%)
Maximum spatial batch extension              ...  19.50, 20.25, 19.75 au
Average spatial batch extension              ...   2.32,  2.38,  2.32 au

Final grid set up in    1.2 sec
Final integration                            ... done (   1.4 sec)
Change in XC energy                          ...     0.000081735
Integrated number of electrons               ...    82.000139146
Previous integrated no of electrons          ...    82.007481885

----------------
TOTAL SCF ENERGY
----------------

Total Energy       :         -535.93496651 Eh          -14583.53185 eV

Components:
Nuclear Repulsion  :          645.14793854 Eh           17555.36791 eV
Electronic Energy  :        -1181.08290506 Eh          -32138.89976 eV
One Electron Energy:        -2009.27067119 Eh          -54675.03459 eV
Two Electron Energy:          828.18776613 Eh           22536.13483 eV

Virial components:
Potential Energy   :        -1067.00003240 Eh          -29034.54697 eV
Kinetic Energy     :          531.06506589 Eh           14451.01512 eV
Virial Ratio       :            2.00917006


DFT components:
N(Alpha)           :       41.000069572837 electrons
N(Beta)            :       41.000069572837 electrons
N(Total)           :       82.000139145673 electrons
E(XC)              :      -50.309981078701 Eh       
DFET-embed. en.    :        0.000000000000 Eh       

---------------
SCF CONVERGENCE
---------------

  Last Energy change         ...    4.5588e-11  Tolerance :   1.0000e-08
  Last MAX-Density change    ...    4.3483e-06  Tolerance :   1.0000e-07
  Last RMS-Density change    ...    1.1621e-07  Tolerance :   5.0000e-09
  Last Orbital Gradient      ...    1.8529e-06  Tolerance :   1.0000e-05
  Last Orbital Rotation      ...    6.6391e-06  Tolerance :   1.0000e-05

             **** THE GBW FILE WAS UPDATED (063041359.gbw) ****
             **** DENSITY FILE WAS UPDATED (063041359.scfp) ****
             **** ENERGY FILE WAS UPDATED (063041359.en.tmp) ****
             **** THE GBW FILE WAS UPDATED (063041359.gbw) ****
             **** DENSITY FILE WAS UPDATED (063041359.scfp) ****
----------------
ORBITAL ENERGIES
----------------

  NO   OCC          E(Eh)            E(eV) 
   0   2.0000     -19.313563      -525.5488 
   1   2.0000     -19.251581      -523.8622 
   2   2.0000     -19.233637      -523.3739 
   3   2.0000     -10.373193      -282.2689 
   4   2.0000     -10.350962      -281.6640 
   5   2.0000     -10.347722      -281.5758 
   6   2.0000     -10.337509      -281.2979 
   7   2.0000     -10.334150      -281.2065 
   8   2.0000     -10.295758      -280.1618 
   9   2.0000     -10.282700      -279.8065 
  10   2.0000     -10.280894      -279.7573 
  11   2.0000      -1.232208       -33.5301 
  12   2.0000      -1.155472       -31.4420 
  13   2.0000      -1.149391       -31.2765 
  14   2.0000      -0.913364       -24.8539 
  15   2.0000      -0.904462       -24.6117 
  16   2.0000      -0.882154       -24.0046 
  17   2.0000      -0.804975       -21.9045 
  18   2.0000      -0.739695       -20.1281 
  19   2.0000      -0.707859       -19.2618 
  20   2.0000      -0.683821       -18.6077 
  21   2.0000      -0.661226       -17.9929 
  22   2.0000      -0.644622       -17.5410 
  23   2.0000      -0.606309       -16.4985 
  24   2.0000      -0.595902       -16.2153 
  25   2.0000      -0.580773       -15.8036 
  26   2.0000      -0.565309       -15.3828 
  27   2.0000      -0.553182       -15.0528 
  28   2.0000      -0.536238       -14.5918 
  29   2.0000      -0.534990       -14.5578 
  30   2.0000      -0.503517       -13.7014 
  31   2.0000      -0.498044       -13.5525 
  32   2.0000      -0.484397       -13.1811 
  33   2.0000      -0.479544       -13.0491 
  34   2.0000      -0.463569       -12.6144 
  35   2.0000      -0.458526       -12.4771 
  36   2.0000      -0.418931       -11.3997 
  37   2.0000      -0.377425       -10.2703 
  38   2.0000      -0.366456        -9.9718 
  39   2.0000      -0.343151        -9.3376 
  40   2.0000      -0.311013        -8.4631 
  41   0.0000       0.061843         1.6828 
  42   0.0000       0.093266         2.5379 
  43   0.0000       0.141757         3.8574 
  44   0.0000       0.149316         4.0631 
  45   0.0000       0.162917         4.4332 
  46   0.0000       0.179687         4.8895 
  47   0.0000       0.192893         5.2489 
  48   0.0000       0.199053         5.4165 
  49   0.0000       0.211080         5.7438 
  50   0.0000       0.213446         5.8082 
  51   0.0000       0.221938         6.0392 
  52   0.0000       0.227236         6.1834 
  53   0.0000       0.242633         6.6024 
  54   0.0000       0.251357         6.8398 
  55   0.0000       0.276270         7.5177 
  56   0.0000       0.293117         7.9761 
  57   0.0000       0.315647         8.5892 
  58   0.0000       0.316820         8.6211 
  59   0.0000       0.361547         9.8382 
  60   0.0000       0.368309        10.0222 
  61   0.0000       0.373677        10.1683 
  62   0.0000       0.399484        10.8705 
  63   0.0000       0.444763        12.1026 
  64   0.0000       0.484438        13.1822 
  65   0.0000       0.496814        13.5190 
  66   0.0000       0.517847        14.0913 
  67   0.0000       0.532760        14.4971 
  68   0.0000       0.543521        14.7899 
  69   0.0000       0.555744        15.1226 
  70   0.0000       0.572174        15.5696 
  71   0.0000       0.578217        15.7341 
  72   0.0000       0.589187        16.0326 
  73   0.0000       0.602328        16.3902 
  74   0.0000       0.623195        16.9580 
  75   0.0000       0.636400        17.3173 
  76   0.0000       0.652972        17.7683 
  77   0.0000       0.657916        17.9028 
  78   0.0000       0.680849        18.5268 
  79   0.0000       0.696994        18.9662 
  80   0.0000       0.714531        19.4434 
  81   0.0000       0.724824        19.7235 
  82   0.0000       0.731231        19.8978 
  83   0.0000       0.735035        20.0013 
  84   0.0000       0.741452        20.1759 
  85   0.0000       0.749469        20.3941 
  86   0.0000       0.756339        20.5810 
  87   0.0000       0.761067        20.7097 
  88   0.0000       0.771791        21.0015 
  89   0.0000       0.780374        21.2350 
  90   0.0000       0.784150        21.3378 
  91   0.0000       0.797683        21.7061 
  92   0.0000       0.800959        21.7952 
  93   0.0000       0.814355        22.1597 
  94   0.0000       0.822780        22.3890 
  95   0.0000       0.836897        22.7731 
  96   0.0000       0.857008        23.3204 
  97   0.0000       0.867349        23.6018 
  98   0.0000       0.899218        24.4690 
  99   0.0000       0.956353        26.0237 
 100   0.0000       0.984926        26.8012 
 101   0.0000       1.040401        28.3107 
 102   0.0000       1.046704        28.4823 
 103   0.0000       1.071168        29.1480 
 104   0.0000       1.102155        29.9912 
 105   0.0000       1.137459        30.9518 
 106   0.0000       1.160983        31.5920 
 107   0.0000       1.196232        32.5511 
 108   0.0000       1.199629        32.6436 
 109   0.0000       1.241208        33.7750 
 110   0.0000       1.245722        33.8978 
 111   0.0000       1.291132        35.1335 
 112   0.0000       1.313693        35.7474 
 113   0.0000       1.355524        36.8857 
 114   0.0000       1.366015        37.1712 
 115   0.0000       1.380305        37.5600 
 116   0.0000       1.383556        37.6485 
 117   0.0000       1.407713        38.3058 
 118   0.0000       1.431880        38.9634 
 119   0.0000       1.501405        40.8553 
 120   0.0000       1.506568        40.9958 
 121   0.0000       1.532300        41.6960 
 122   0.0000       1.543391        41.9978 
 123   0.0000       1.590707        43.2853 
 124   0.0000       1.625586        44.2344 
 125   0.0000       1.642289        44.6890 
 126   0.0000       1.661633        45.2153 
 127   0.0000       1.676949        45.6321 
 128   0.0000       1.693651        46.0866 
 129   0.0000       1.713967        46.6394 
 130   0.0000       1.743424        47.4410 
 131   0.0000       1.764232        48.0072 
 132   0.0000       1.781757        48.4841 
 133   0.0000       1.790678        48.7268 
 134   0.0000       1.813709        49.3535 
 135   0.0000       1.826350        49.6975 
 136   0.0000       1.836208        49.9658 
 137   0.0000       1.843301        50.1588 
 138   0.0000       1.878817        51.1252 
 139   0.0000       1.904996        51.8376 
 140   0.0000       1.909858        51.9699 
 141   0.0000       1.926836        52.4319 
 142   0.0000       1.943433        52.8835 
 143   0.0000       1.949358        53.0447 
 144   0.0000       1.964488        53.4564 
 145   0.0000       1.980917        53.9035 
 146   0.0000       2.002514        54.4912 
 147   0.0000       2.007001        54.6133 
 148   0.0000       2.016036        54.8591 
 149   0.0000       2.031470        55.2791 
 150   0.0000       2.047162        55.7061 
 151   0.0000       2.057576        55.9895 
 152   0.0000       2.065445        56.2036 
 153   0.0000       2.088084        56.8197 
 154   0.0000       2.095525        57.0221 
 155   0.0000       2.135225        58.1024 
 156   0.0000       2.146091        58.3981 
 157   0.0000       2.177706        59.2584 
 158   0.0000       2.231549        60.7235 
 159   0.0000       2.252252        61.2869 
 160   0.0000       2.270494        61.7833 
 161   0.0000       2.295472        62.4630 
 162   0.0000       2.313205        62.9455 
 163   0.0000       2.329942        63.4010 
 164   0.0000       2.373699        64.5916 
 165   0.0000       2.425308        65.9960 
 166   0.0000       2.431192        66.1561 
 167   0.0000       2.459296        66.9208 
 168   0.0000       2.488120        67.7052 
 169   0.0000       2.501601        68.0720 
 170   0.0000       2.534741        68.9738 
 171   0.0000       2.543654        69.2164 
 172   0.0000       2.615060        71.1594 
 173   0.0000       2.656022        72.2740 
 174   0.0000       2.675874        72.8142 
 175   0.0000       2.685493        73.0760 
 176   0.0000       2.757365        75.0317 
 177   0.0000       2.774550        75.4993 
 178   0.0000       2.788075        75.8674 
 179   0.0000       2.830986        77.0350 
 180   0.0000       2.845845        77.4394 
 181   0.0000       2.857414        77.7542 
 182   0.0000       2.873632        78.1955 
 183   0.0000       2.926598        79.6368 
 184   0.0000       2.949231        80.2527 
 185   0.0000       2.970935        80.8432 
 186   0.0000       2.977929        81.0336 
 187   0.0000       3.038379        82.6785 
 188   0.0000       3.060763        83.2876 
 189   0.0000       3.075128        83.6785 
 190   0.0000       3.101580        84.3983 
 191   0.0000       3.130692        85.1905 
 192   0.0000       3.169575        86.2485 
 193   0.0000       3.188332        86.7589 
 194   0.0000       3.225885        87.7808 
 195   0.0000       3.282956        89.3338 
 196   0.0000       3.298523        89.7574 
 197   0.0000       3.437479        93.5385 
 198   0.0000       3.530208        96.0619 
 199   0.0000       3.545784        96.4857 
 200   0.0000       3.614269        98.3493 
 201   0.0000       3.620648        98.5228 
 202   0.0000       3.733932       101.6055 
 203   0.0000       3.745468       101.9194 

                    ********************************
                    * MULLIKEN POPULATION ANALYSIS *
                    ********************************

-----------------------
MULLIKEN ATOMIC CHARGES
-----------------------
   0 C :   -0.031832
   1 C :    0.139576
   2 O :   -0.224557
   3 C :   -0.102687
   4 C :   -0.042609
   5 H :    0.012493
   6 C :    0.333867
   7 O :   -0.401412
   8 C :    0.163861
   9 C :   -0.057301
  10 C :    0.123130
  11 O :   -0.207906
  12 H :    0.000892
  13 H :    0.064212
  14 H :    0.057183
  15 H :    0.042819
  16 H :    0.008559
  17 H :    0.052198
  18 H :    0.015993
  19 H :    0.032783
  20 H :    0.020739
Sum of atomic charges:    0.0000000

--------------------------------
MULLIKEN REDUCED ORBITAL CHARGES
--------------------------------
  0 C s       :     3.162564  s :     3.162564
      pz      :     0.891818  p :     2.833965
      px      :     0.917841
      py      :     1.024306
      dz2     :     0.009503  d :     0.035303
      dxz     :     0.008801
      dyz     :     0.006472
      dx2y2   :     0.005463
      dxy     :     0.005064
  1 C s       :     3.143747  s :     3.143747
      pz      :     0.863563  p :     2.650752
      px      :     0.800805
      py      :     0.986384
      dz2     :     0.012164  d :     0.065925
      dxz     :     0.021444
      dyz     :     0.012296
      dx2y2   :     0.009731
      dxy     :     0.010290
  2 O s       :     3.720187  s :     3.720187
      pz      :     1.592452  p :     4.482773
      px      :     1.306438
      py      :     1.583883
      dz2     :     0.003837  d :     0.021597
      dxz     :     0.007037
      dyz     :     0.003836
      dx2y2   :     0.003620
      dxy     :     0.003267
  3 C s       :     3.108623  s :     3.108623
      pz      :     0.883900  p :     2.921911
      px      :     0.948762
      py      :     1.089249
      dz2     :     0.014436  d :     0.072153
      dxz     :     0.024544
      dyz     :     0.014641
      dx2y2   :     0.008897
      dxy     :     0.009636
  4 C s       :     3.218178  s :     3.218178
      pz      :     0.869140  p :     2.789354
      px      :     0.909336
      py      :     1.010878
      dz2     :     0.007901  d :     0.035078
      dxz     :     0.010251
      dyz     :     0.006097
      dx2y2   :     0.005341
      dxy     :     0.005488
  5 H s       :     0.963042  s :     0.963042
      pz      :     0.013012  p :     0.024465
      px      :     0.005752
      py      :     0.005701
  6 C s       :     2.899417  s :     2.899417
      pz      :     0.902696  p :     2.703615
      px      :     0.782755
      py      :     1.018164
      dz2     :     0.015346  d :     0.063101
      dxz     :     0.012591
      dyz     :     0.005034
      dx2y2   :     0.018400
      dxy     :     0.011731
  7 O s       :     3.761178  s :     3.761178
      pz      :     1.692138  p :     4.623967
      px      :     1.511634
      py      :     1.420195
      dz2     :     0.002361  d :     0.016267
      dxz     :     0.003856
      dyz     :     0.003081
      dx2y2   :     0.004583
      dxy     :     0.002387
  8 C s       :     3.009473  s :     3.009473
      pz      :     0.987038  p :     2.762775
      px      :     1.011599
      py      :     0.764139
      dz2     :     0.013324  d :     0.063891
      dxz     :     0.006112
      dyz     :     0.011061
      dx2y2   :     0.018285
      dxy     :     0.015109
  9 C s       :     3.015480  s :     3.015480
      pz      :     1.039592  p :     3.010404
      px      :     0.985161
      py      :     0.985652
      dz2     :     0.007535  d :     0.031417
      dxz     :     0.007364
      dyz     :     0.003491
      dx2y2   :     0.004659
      dxy     :     0.008367
 10 C s       :     3.177523  s :     3.177523
      pz      :     0.963303  p :     2.608285
      px      :     0.877188
      py      :     0.767794
      dz2     :     0.020114  d :     0.091063
      dxz     :     0.028585
      dyz     :     0.007769
      dx2y2   :     0.017785
      dxy     :     0.016808
 11 O s       :     3.756344  s :     3.756344
      pz      :     1.753149  p :     4.432276
      px      :     1.375777
      py      :     1.303350
      dz2     :     0.002309  d :     0.019286
      dxz     :     0.004349
      dyz     :     0.001361
      dx2y2   :     0.005528
      dxy     :     0.005740
 12 H s       :     0.979931  s :     0.979931
      pz      :     0.014904  p :     0.019177
      px      :     0.002003
      py      :     0.002271
 13 H s       :     0.911505  s :     0.911505
      pz      :     0.004843  p :     0.024283
      px      :     0.008302
      py      :     0.011137
 14 H s       :     0.920403  s :     0.920403
      pz      :     0.013327  p :     0.022414
      px      :     0.004851
      py      :     0.004237
 15 H s       :     0.936640  s :     0.936640
      pz      :     0.006462  p :     0.020541
      px      :     0.012013
      py      :     0.002065
 16 H s       :     0.969976  s :     0.969976
      pz      :     0.014599  p :     0.021465
      px      :     0.004239
      py      :     0.002627
 17 H s       :     0.926462  s :     0.926462
      pz      :     0.004233  p :     0.021340
      px      :     0.002823
      py      :     0.014284
 18 H s       :     0.962394  s :     0.962394
      pz      :     0.014282  p :     0.021613
      px      :     0.003026
      py      :     0.004305
 19 H s       :     0.943610  s :     0.943610
      pz      :     0.006657  p :     0.023607
      px      :     0.009825
      py      :     0.007125
 20 H s       :     0.955145  s :     0.955145
      pz      :     0.009126  p :     0.024116
      px      :     0.009017
      py      :     0.005973


                     *******************************
                     * LOEWDIN POPULATION ANALYSIS *
                     *******************************

----------------------
LOEWDIN ATOMIC CHARGES
----------------------
   0 C :   -0.071453
   1 C :    0.038716
   2 O :    0.015235
   3 C :   -0.029448
   4 C :   -0.065804
   5 H :    0.031101
   6 C :    0.071218
   7 O :   -0.168441
   8 C :    0.075277
   9 C :   -0.096853
  10 C :    0.100868
  11 O :   -0.129605
  12 H :   -0.013547
  13 H :    0.052018
  14 H :    0.042761
  15 H :    0.028748
  16 H :    0.007283
  17 H :    0.037588
  18 H :    0.018160
  19 H :    0.023727
  20 H :    0.032449

-------------------------------
LOEWDIN REDUCED ORBITAL CHARGES
-------------------------------
  0 C s       :     2.856163  s :     2.856163
      pz      :     1.059218  p :     3.122178
      px      :     1.035661
      py      :     1.027299
      dz2     :     0.029944  d :     0.093111
      dxz     :     0.024867
      dyz     :     0.014292
      dx2y2   :     0.012067
      dxy     :     0.011942
  1 C s       :     2.864420  s :     2.864420
      pz      :     1.027874  p :     2.947928
      px      :     0.912842
      py      :     1.007212
      dz2     :     0.032518  d :     0.148937
      dxz     :     0.050378
      dyz     :     0.026336
      dx2y2   :     0.019212
      dxy     :     0.020493
  2 O s       :     3.412935  s :     3.412935
      pz      :     1.619774  p :     4.531680
      px      :     1.347334
      py      :     1.564572
      dz2     :     0.006033  d :     0.040150
      dxz     :     0.013776
      dyz     :     0.005546
      dx2y2   :     0.007673
      dxy     :     0.007122
  3 C s       :     2.864941  s :     2.864941
      pz      :     0.976717  p :     3.002066
      px      :     0.986827
      py      :     1.038522
      dz2     :     0.036550  d :     0.162441
      dxz     :     0.058458
      dyz     :     0.032050
      dx2y2   :     0.016940
      dxy     :     0.018442
  4 C s       :     2.854347  s :     2.854347
      pz      :     1.051273  p :     3.118108
      px      :     1.033889
      py      :     1.032946
      dz2     :     0.025239  d :     0.093349
      dxz     :     0.029070
      dyz     :     0.013384
      dx2y2   :     0.012493
      dxy     :     0.013163
  5 H s       :     0.896491  s :     0.896491
      pz      :     0.036385  p :     0.072407
      px      :     0.018213
      py      :     0.017810
  6 C s       :     2.832269  s :     2.832269
      pz      :     0.994678  p :     2.948574
      px      :     0.908581
      py      :     1.045315
      dz2     :     0.038574  d :     0.147939
      dxz     :     0.028886
      dyz     :     0.009886
      dx2y2   :     0.044124
      dxy     :     0.026469
  7 O s       :     3.455887  s :     3.455887
      pz      :     1.710266  p :     4.683268
      px      :     1.522561
      py      :     1.450440
      dz2     :     0.003756  d :     0.029286
      dxz     :     0.006509
      dyz     :     0.005140
      dx2y2   :     0.008563
      dxy     :     0.005318
  8 C s       :     2.839042  s :     2.839042
      pz      :     1.053381  p :     2.939411
      px      :     1.021805
      py      :     0.864225
      dz2     :     0.033062  d :     0.146270
      dxz     :     0.014032
      dyz     :     0.024102
      dx2y2   :     0.040790
      dxy     :     0.034285
  9 C s       :     2.854144  s :     2.854144
      pz      :     1.070479  p :     3.159909
      px      :     1.048733
      py      :     1.040698
      dz2     :     0.019416  d :     0.082800
      dxz     :     0.020164
      dyz     :     0.008108
      dx2y2   :     0.011899
      dxy     :     0.023214
 10 C s       :     2.896040  s :     2.896040
      pz      :     1.032726  p :     2.795103
      px      :     0.981482
      py      :     0.780895
      dz2     :     0.047507  d :     0.207988
      dxz     :     0.070057
      dyz     :     0.017785
      dx2y2   :     0.037783
      dxy     :     0.034856
 11 O s       :     3.540384  s :     3.540384
      pz      :     1.765675  p :     4.556789
      px      :     1.476545
      py      :     1.314569
      dz2     :     0.004231  d :     0.032432
      dxz     :     0.007826
      dyz     :     0.002192
      dx2y2   :     0.008786
      dxy     :     0.009397
 12 H s       :     0.948523  s :     0.948523
      pz      :     0.046693  p :     0.065025
      px      :     0.009202
      py      :     0.009130
 13 H s       :     0.878268  s :     0.878268
      pz      :     0.014077  p :     0.069714
      px      :     0.023075
      py      :     0.032563
 14 H s       :     0.888008  s :     0.888008
      pz      :     0.040427  p :     0.069231
      px      :     0.015643
      py      :     0.013161
 15 H s       :     0.907580  s :     0.907580
      pz      :     0.018132  p :     0.063672
      px      :     0.036508
      py      :     0.009033
 16 H s       :     0.927532  s :     0.927532
      pz      :     0.042599  p :     0.065185
      px      :     0.012964
      py      :     0.009622
 17 H s       :     0.898516  s :     0.898516
      pz      :     0.011446  p :     0.063895
      px      :     0.009974
      py      :     0.042475
 18 H s       :     0.916030  s :     0.916030
      pz      :     0.043055  p :     0.065810
      px      :     0.009985
      py      :     0.012770
 19 H s       :     0.903509  s :     0.903509
      pz      :     0.021277  p :     0.072764
      px      :     0.029694
      py      :     0.021793
 20 H s       :     0.895657  s :     0.895657
      pz      :     0.026666  p :     0.071894
      px      :     0.026858
      py      :     0.018370


                      *****************************
                      * MAYER POPULATION ANALYSIS *
                      *****************************

  NA   - Mulliken gross atomic population
  ZA   - Total nuclear charge
  QA   - Mulliken gross atomic charge
  VA   - Mayer's total valence
  BVA  - Mayer's bonded valence
  FA   - Mayer's free valence

  ATOM       NA         ZA         QA         VA         BVA        FA
  0 C      6.0318     6.0000    -0.0318     3.8360     3.8360     0.0000
  1 C      5.8604     6.0000     0.1396     3.8435     3.8435    -0.0000
  2 O      8.2246     8.0000    -0.2246     2.3682     2.3682    -0.0000
  3 C      6.1027     6.0000    -0.1027     3.8958     3.8958    -0.0000
  4 C      6.0426     6.0000    -0.0426     3.8875     3.8875    -0.0000
  5 H      0.9875     1.0000     0.0125     1.0026     1.0026     0.0000
  6 C      5.6661     6.0000     0.3339     3.9259     3.9259     0.0000
  7 O      8.4014     8.0000    -0.4014     2.0864     2.0864     0.0000
  8 C      5.8361     6.0000     0.1639     4.0355     4.0355    -0.0000
  9 C      6.0573     6.0000    -0.0573     3.8066     3.8066     0.0000
 10 C      5.8769     6.0000     0.1231     4.1193     4.1193     0.0000
 11 O      8.2079     8.0000    -0.2079     2.2539     2.2539     0.0000
 12 H      0.9991     1.0000     0.0009     0.9834     0.9834     0.0000
 13 H      0.9358     1.0000     0.0642     0.9901     0.9901     0.0000
 14 H      0.9428     1.0000     0.0572     1.0143     1.0143     0.0000
 15 H      0.9572     1.0000     0.0428     0.9848     0.9848    -0.0000
 16 H      0.9914     1.0000     0.0086     0.9867     0.9867     0.0000
 17 H      0.9478     1.0000     0.0522     0.9885     0.9885    -0.0000
 18 H      0.9840     1.0000     0.0160     1.0013     1.0013     0.0000
 19 H      0.9672     1.0000     0.0328     1.0024     1.0024     0.0000
 20 H      0.9793     1.0000     0.0207     0.9953     0.9953     0.0000

  Mayer bond orders larger than 0.100000
B(  0-C ,  1-C ) :   1.5622 B(  0-C ,  4-C ) :   1.2291 B(  0-C , 20-H ) :   1.0049 
B(  1-C ,  2-O ) :   1.1269 B(  1-C , 19-H ) :   1.0040 B(  2-O ,  3-C ) :   1.1146 
B(  3-C ,  4-C ) :   1.5902 B(  3-C ,  6-C ) :   1.0075 B(  4-C ,  5-H ) :   1.0170 
B(  6-C ,  7-O ) :   1.0313 B(  6-C , 17-H ) :   0.9375 B(  6-C , 18-H ) :   0.9315 
B(  7-O ,  8-C ) :   0.9989 B(  8-C ,  9-C ) :   1.0388 B(  8-C , 15-H ) :   0.9570 
B(  8-C , 16-H ) :   0.9439 B(  9-C , 10-C ) :   0.9494 B(  9-C , 13-H ) :   0.9292 
B(  9-C , 14-H ) :   0.9280 B( 10-C , 11-O ) :   2.1262 B( 10-C , 12-H ) :   0.9421 


-------
TIMINGS
-------

Total SCF time: 0 days 0 hours 2 min 21 sec 

Total time                  ....     141.190 sec
Sum of individual times     ....     141.001 sec  ( 99.9%)

Fock matrix formation       ....     138.964 sec  ( 98.4%)
  XC integration            ....       6.537 sec  (  4.7% of F)
    Basis function eval.    ....       1.930 sec  ( 29.5% of XC)
    Density eval.           ....       1.188 sec  ( 18.2% of XC)
    XC-Functional eval.     ....       1.539 sec  ( 23.5% of XC)
    XC-Potential eval.      ....       1.710 sec  ( 26.2% of XC)
Diagonalization             ....       0.035 sec  (  0.0%)
Density matrix formation    ....       0.009 sec  (  0.0%)
Population analysis         ....       0.005 sec  (  0.0%)
Initial guess               ....       0.517 sec  (  0.4%)
Orbital Transformation      ....       0.000 sec  (  0.0%)
Orbital Orthonormalization  ....       0.000 sec  (  0.0%)
DIIS solution               ....       0.013 sec  (  0.0%)
SOSCF solution              ....       0.021 sec  (  0.0%)
Grid generation             ....       1.438 sec  (  1.0%)


-------------------------------------------------------------------------------
                          DFT DISPERSION CORRECTION                            
                                                                               
                              DFTD3 V3.1  Rev 1                                
                              USING zero damping                               
-------------------------------------------------------------------------------
The omegaB97X-D3 functional is recognized. Fit by Chai et al.
Active option DFTDOPT                   ...         3   

molecular C6(AA) [au] = 4185.201133 


            DFT-D V3
 parameters
 s6 scaling factor         :     1.0000 
 rs6 scaling factor        :     1.2810 
 s8 scaling factor         :     1.0000 
 rs8 scaling factor        :     1.0940 
 Damping factor alpha6     :    14.0000 
 Damping factor alpha8     :    16.0000 
 ad hoc parameters k1-k3   :    16.0000     1.3333    -4.0000 

 Edisp/kcal,au: -5.762268086789  -0.009182757728 
 E6   /kcal   :  -2.359920331 
 E8   /kcal   :  -3.402347756 
 % E8         :  59.045287459 

-------------------------   ----------------
Dispersion correction           -0.009182758
-------------------------   ----------------


-------------------------   --------------------
FINAL SINGLE POINT ENERGY      -535.944149270318
-------------------------   --------------------

------------------------------------------------------------------------------
                         ORCA SCF GRADIENT CALCULATION
------------------------------------------------------------------------------

Gradient of the Kohn-Sham DFT energy:
Kohn-Sham wavefunction type      ... RKS
Hartree-Fock exchange scaling    ...    0.196
Number of operators              ...    1
Number of atoms                  ...   21
Basis set dimensions             ...  204
Integral neglect threshold       ... 2.5e-11
Integral primitive cutoff        ... 2.5e-12

Nuclear repulsion gradient       ... done
One Electron Gradient            ... done
Pre-screening matrix             ... done
Starting the two electron gradient:
Two electron gradient done
Exchange-correlation gradient    ... done
Dispersion correction            ... done

------------------
CARTESIAN GRADIENT
------------------

   1   C   :    0.000166796    0.002134357   -0.008632018
   2   C   :    0.000092650    0.003044366    0.007151914
   3   O   :   -0.001444334    0.002197790   -0.000385536
   4   C   :   -0.001836979    0.005788378    0.004951956
   5   C   :   -0.002779912    0.001710318   -0.010687632
   6   H   :   -0.006234234    0.003411174    0.010721813
   7   C   :   -0.005127835   -0.002701178    0.005596215
   8   O   :    0.005384507   -0.001238942   -0.003329134
   9   C   :    0.006147379    0.001399495    0.008679409
  10   C   :   -0.001764511    0.009885429   -0.004301011
  11   C   :   -0.002157367   -0.005212484    0.003921394
  12   O   :    0.001031621   -0.007055911    0.001324657
  13   H   :    0.000749870    0.001436371   -0.008530303
  14   H   :   -0.004264338   -0.006079097    0.000203301
  15   H   :    0.001750469   -0.001071479    0.005909952
  16   H   :   -0.004564053   -0.002412230   -0.000592061
  17   H   :   -0.002527293   -0.000268558   -0.004883917
  18   H   :    0.000806326    0.003383905   -0.001949959
  19   H   :    0.000148404    0.000733491   -0.004986507
  20   H   :    0.006971849   -0.004445841   -0.008210820
  21   H   :    0.009450984   -0.004639353    0.008028287

Difference to translation invariance:
           :   -0.0000000000    0.0000000000    0.0000000000

Norm of the cartesian gradient     ...    0.0389680379
RMS gradient                       ...    0.0049095113
MAX gradient                       ...    0.0107218130

-------
TIMINGS
-------

Total SCF gradient time            ...       50.596 sec

One electron gradient       ....       0.177 sec  (  0.4%)
Prescreening matrices       ....       0.104 sec  (  0.2%)
Two electron gradient       ....      45.140 sec  ( 89.2%)
XC gradient                 ....       5.037 sec  ( 10.0%)
------------------------------------------------------------------------------
                         ORCA GEOMETRY RELAXATION STEP
------------------------------------------------------------------------------

Reading the OPT-File                    .... done
Getting information on internals        .... done
Copying old internal coords+grads       .... done
Making the new internal coordinates     .... (new redundants).... done
Validating the new internal coordinates .... (new redundants).... done
Calculating the B-matrix                .... done
Calculating the G,G- and P matrices     .... done
Transforming gradient to internals      .... done
Projecting the internal gradient        .... done
Number of atoms                         ....  21
Number of internal coordinates          ....  99
Current Energy                          ....  -535.944149270 Eh
Current gradient norm                   ....     0.038968038 Eh/bohr
Maximum allowed component of the step   ....  0.300
Current trust radius                    ....  0.300
Evaluating the initial hessian          ....  (Almloef) done
Projecting the Hessian                  .... done
Forming the augmented Hessian           .... done
Diagonalizing the augmented Hessian     .... done
Last element of RFO vector              ....  0.883515270
Lowest eigenvalues of augmented Hessian:
 -0.030121985  0.011195460  0.012736049  0.013088333  0.013326438
Length of the computed step             ....  0.530157624
Warning: the length of the step is outside the trust region - taking restricted step instead
The input lambda is                     ....    -0.030122
   iter:   1  x=   -0.050937  g=    9.179250 f(x)=     0.191067
   iter:   2  x=   -0.072275  g=    3.436615 f(x)=     0.073331
   iter:   3  x=   -0.085067  g=    1.695538 f(x)=     0.021688
   iter:   4  x=   -0.087836  g=    1.210798 f(x)=     0.003353
   iter:   5  x=   -0.087933  g=    1.132882 f(x)=     0.000110
   iter:   6  x=   -0.087933  g=    1.130293 f(x)=     0.000000
   iter:   7  x=   -0.087933  g=    1.130290 f(x)=     0.000000
   iter:   8  x=   -0.087933  g=    1.130290 f(x)=    -0.000000
The output lambda is                    ....    -0.087933 (8 iterations)
The final length of the internal step   ....  0.300000000
Converting the step to cartesian space:
 Initial RMS(Int)=    0.0301511345
Transforming coordinates:
 Iter   0:  RMS(Cart)=    0.3885971720 RMS(Int)=    0.6316517177
 Iter   1:  RMS(Cart)=    0.0270055518 RMS(Int)=    0.0127707039
 Iter   2:  RMS(Cart)=    0.0064572076 RMS(Int)=    0.0012553063
 Iter   3:  RMS(Cart)=    0.0011676819 RMS(Int)=    0.0005944074
 Iter   4:  RMS(Cart)=    0.0002806301 RMS(Int)=    0.0000858033
 Iter   5:  RMS(Cart)=    0.0000564814 RMS(Int)=    0.0000304017
 Iter   6:  RMS(Cart)=    0.0000135745 RMS(Int)=    0.0000056403
 Iter   7:  RMS(Cart)=    0.0000029265 RMS(Int)=    0.0000016450
 Iter   8:  RMS(Cart)=    0.0000007024 RMS(Int)=    0.0000003628
 Iter   9:  RMS(Cart)=    0.0000001584 RMS(Int)=    0.0000000923
 Iter  10:  RMS(Cart)=    0.0000000379 RMS(Int)=    0.0000000228
done
Storing new coordinates                 .... done

                                .--------------------.
          ----------------------|Geometry convergence|-------------------------
          Item                value                   Tolerance       Converged
          ---------------------------------------------------------------------
          RMS gradient        0.0086203438            0.0001000000      NO
          MAX gradient        0.0470960430            0.0003000000      NO
          RMS step            0.0301511345            0.0020000000      NO
          MAX step            0.1228306297            0.0040000000      NO
          ........................................................
          Max(Bonds)      0.0146      Max(Angles)    5.49
          Max(Dihed)        7.04      Max(Improp)    0.00
          ---------------------------------------------------------------------

The optimization has not yet converged - more geometry cycles are needed


    ---------------------------------------------------------------------------
                         Redundant Internal Coordinates
                            (Angstroem and degrees)

        Definition                    Value    dE/dq     Step     New-Value
    ----------------------------------------------------------------------------
     1. B(C   1,C   0)                1.3605 -0.001235  0.0009    1.3614   
     2. B(O   2,C   1)                1.3418 -0.004086  0.0028    1.3446   
     3. B(C   3,O   2)                1.3530 -0.001916  0.0013    1.3543   
     4. B(C   4,C   3)                1.3655  0.000469 -0.0004    1.3651   
     5. B(C   4,C   0)                1.4131 -0.012209  0.0098    1.4229   
     6. B(H   5,C   4)                1.0707 -0.012807  0.0143    1.0850   
     7. B(C   6,C   3)                1.4974 -0.000834  0.0009    1.4983   
     8. B(O   7,C   6)                1.4110 -0.002714  0.0024    1.4133   
     9. B(C   8,O   7)                1.4058 -0.010079  0.0087    1.4145   
    10. B(C   9,C   8)                1.5343 -0.003091  0.0036    1.5379   
    11. B(C  10,C   9)                1.5032 -0.003817  0.0040    1.5073   
    12. B(O  11,C  10)                1.2000 -0.004059  0.0018    1.2017   
    13. B(H  12,C  10)                1.1100 -0.008399  0.0105    1.1205   
    14. B(H  13,C   9)                1.0945 -0.007423  0.0089    1.1034   
    15. B(H  14,C   9)                1.0907 -0.005912  0.0070    1.0977   
    16. B(H  15,C   8)                1.0932 -0.003912  0.0047    1.0978   
    17. B(H  16,C   8)                1.1017 -0.005177  0.0063    1.1080   
    18. B(H  17,C   6)                1.0961 -0.003054  0.0037    1.0998   
    19. B(H  18,C   6)                1.0999 -0.004725  0.0057    1.1057   
    20. B(H  19,C   1)                1.0713 -0.011470  0.0128    1.0841   
    21. B(H  20,C   0)                1.0700 -0.013151  0.0146    1.0846   
    22. A(C   1,C   0,H  20)          127.01  0.001132   -0.16    126.85   
    23. A(C   1,C   0,C   4)          105.92  0.000677   -0.05    105.87   
    24. A(C   4,C   0,H  20)          127.07 -0.001807    0.21    127.28   
    25. A(C   0,C   1,H  19)          132.01 -0.003099    0.37    132.38   
    26. A(C   0,C   1,O   2)          110.79  0.002224   -0.24    110.55   
    27. A(O   2,C   1,H  19)          117.20  0.000877   -0.14    117.06   
    28. A(C   1,O   2,C   3)          107.08 -0.004071    0.43    107.51   
    29. A(C   4,C   3,C   6)          131.25 -0.002910    0.33    131.57   
    30. A(O   2,C   3,C   4)          109.99  0.001259   -0.16    109.83   
    31. A(O   2,C   3,C   6)          118.72  0.001738   -0.21    118.51   
    32. A(C   3,C   4,H   5)          126.31  0.001277   -0.17    126.15   
    33. A(C   0,C   4,H   5)          127.48 -0.001194    0.15    127.63   
    34. A(C   0,C   4,C   3)          106.20 -0.000101    0.02    106.22   
    35. A(O   7,C   6,H  18)          110.94  0.004651    0.07    111.01   
    36. A(C   3,C   6,H  18)          108.83 -0.000957    0.66    109.49   
    37. A(O   7,C   6,H  17)          104.52  0.005544   -1.00    103.52   
    38. A(C   3,C   6,H  17)          109.99  0.011585   -2.03    107.96   
    39. A(C   3,C   6,O   7)          113.75 -0.019970    2.74    116.50   
    40. A(H  17,C   6,H  18)          108.65  0.000305   -0.69    107.96   
    41. A(C   6,O   7,C   8)          116.07 -0.047096    5.49    121.56   
    42. A(H  15,C   8,H  16)          108.68 -0.001946   -0.81    107.86   
    43. A(C   9,C   8,H  16)          109.45  0.005867   -0.30    109.15   
    44. A(O   7,C   8,H  16)          110.24  0.011286   -0.64    109.59   
    45. A(O   7,C   8,C   9)          114.92 -0.038429    5.27    120.19   
    46. A(C   9,C   8,H  15)          109.15  0.012532   -2.12    107.03   
    47. A(O   7,C   8,H  15)          104.14  0.012359   -1.75    102.39   
    48. A(C   8,C   9,C  10)          114.21 -0.017772    2.53    116.74   
    49. A(H  13,C   9,H  14)          108.06 -0.001624   -0.32    107.74   
    50. A(C  10,C   9,H  14)          109.97  0.004009    0.10    110.08   
    51. A(C   8,C   9,H  14)          110.54  0.001584    0.40    110.95   
    52. A(C  10,C   9,H  13)          105.83  0.007676   -1.53    104.30   
    53. A(C   8,C   9,H  13)          107.94  0.007144   -1.45    106.49   
    54. A(C   9,C  10,H  12)          113.46 -0.003627    0.43    113.89   
    55. A(C   9,C  10,O  11)          125.54  0.003124   -0.39    125.14   
    56. A(O  11,C  10,H  12)          120.88  0.000701   -0.15    120.73   
    57. D(H  19,C   1,C   0,H  20)      0.12  0.000270   -0.12     -0.00   
    58. D(O   2,C   1,C   0,C   4)     -0.08  0.000077   -0.04     -0.12   
    59. D(O   2,C   1,C   0,H  20)   -179.67 -0.000140    0.06   -179.61   
    60. D(H  19,C   1,C   0,C   4)    179.71  0.000487   -0.22    179.49   
    61. D(C   3,O   2,C   1,H  19)   -178.96 -0.000135    0.08   -178.88   
    62. D(C   3,O   2,C   1,C   0)      0.86  0.000198   -0.07      0.80   
    63. D(C   4,C   3,O   2,C   1)     -1.34 -0.000395    0.15     -1.19   
    64. D(C   6,C   3,O   2,C   1)   -179.36 -0.002632    1.36   -178.00   
    65. D(C   0,C   4,C   3,C   6)    178.97  0.003253   -1.61    177.37   
    66. D(C   0,C   4,C   3,O   2)      1.29  0.000502   -0.19      1.10   
    67. D(H   5,C   4,C   0,H  20)     -0.08  0.000915   -0.46     -0.54   
    68. D(C   3,C   4,C   0,H  20)    178.86 -0.000095    0.03    178.90   
    69. D(H   5,C   4,C   0,C   1)   -179.67  0.000682   -0.36   -180.03   
    70. D(H   5,C   4,C   3,O   2)   -179.76 -0.000526    0.31   -179.45   
    71. D(C   3,C   4,C   0,C   1)     -0.73 -0.000328    0.14     -0.59   
    72. D(H   5,C   4,C   3,C   6)     -2.07  0.002225   -1.11     -3.18   
    73. D(H  18,C   6,C   3,C   4)    171.09 -0.006179    1.89    172.98   
    74. D(H  18,C   6,C   3,O   2)    -11.39 -0.003251    0.37    -11.01   
    75. D(H  17,C   6,C   3,C   4)    -69.99  0.000457    0.25    -69.73   
    76. D(H  17,C   6,C   3,O   2)    107.53  0.003385   -1.27    106.27   
    77. D(O   7,C   6,C   3,C   4)     46.85  0.002707   -0.65     46.20   
    78. D(O   7,C   6,C   3,O   2)   -135.62  0.005634   -2.17   -137.79   
    79. D(C   8,O   7,C   6,H  18)    -45.96 -0.004424    4.08    -41.89   
    80. D(C   8,O   7,C   6,H  17)   -162.88 -0.010144    5.41   -157.47   
    81. D(C   8,O   7,C   6,C   3)     77.13 -0.016933    7.04     84.17   
    82. D(H  16,C   8,O   7,C   6)     48.76 -0.002763   -0.60     48.16   
    83. D(H  15,C   8,O   7,C   6)    165.18  0.006851   -2.78    162.39   
    84. D(C   9,C   8,O   7,C   6)    -75.48  0.009486   -3.68    -79.16   
    85. D(C  10,C   9,C   8,H  16)    -43.64  0.000180    0.72    -42.93   
    86. D(C  10,C   9,C   8,H  15)   -162.47 -0.008371    3.15   -159.32   
    87. D(C  10,C   9,C   8,O   7)     81.01 -0.008860    3.57     84.58   
    88. D(H  14,C   9,C   8,H  16)   -168.28  0.007157   -1.68   -169.97   
    89. D(H  14,C   9,C   8,H  15)     72.89 -0.001394    0.74     73.64   
    90. D(H  14,C   9,C   8,O   7)    -43.63 -0.001883    1.17    -42.46   
    91. D(H  13,C   9,C   8,H  16)     73.73  0.003963   -0.66     73.07   
    92. D(H  13,C   9,C   8,H  15)    -45.09 -0.004588    1.77    -43.33   
    93. D(H  13,C   9,C   8,O   7)   -161.61 -0.005076    2.19   -159.43   
    94. D(H  12,C  10,C   9,H  13)    -84.93  0.000624   -0.21    -85.14   
    95. D(H  12,C  10,C   9,C   8)     33.65  0.004470   -1.58     32.07   
    96. D(O  11,C  10,C   9,H  14)    -25.54 -0.000517   -0.83    -26.37   
    97. D(O  11,C  10,C   9,H  13)     90.93  0.003771   -1.99     88.95   
    98. D(H  12,C  10,C   9,H  14)    158.59 -0.003665    0.96    159.54   
    99. D(O  11,C  10,C   9,C   8)   -150.49  0.007618   -3.36   -153.85   
    ----------------------------------------------------------------------------

         *************************************************************
         *                GEOMETRY OPTIMIZATION CYCLE   2            *
         *************************************************************
---------------------------------
CARTESIAN COORDINATES (ANGSTROEM)
---------------------------------
  C     -2.472895   -0.469036   -0.942747
  C     -2.597363   -0.367973    0.409171
  O     -1.458543   -0.743483    1.017470
  C     -0.571207   -1.077990    0.050548
  C     -1.151391   -0.941526   -1.177601
  H     -0.681562   -1.147162   -2.133707
  C      0.778969   -1.580639    0.461842
  O      1.883992   -1.088909   -0.269355
  C      2.491963    0.147694    0.050051
  C      1.847409    1.466829   -0.407820
  C      0.766143    2.035160    0.475206
  O     -0.123356    2.753142    0.104482
  H      0.908867    1.816590    1.564873
  H      2.644945    2.229097   -0.387711
  H      1.486036    1.388181   -1.441323
  H      3.463349    0.071389   -0.455708
  H      2.680449    0.196355    1.140854
  H      0.808856   -2.664270    0.276222
  H      0.918085   -1.416653    1.546409
  H     -3.414129   -0.047506    1.045939
  H     -3.226318   -0.228792   -1.685098

----------------------------
CARTESIAN COORDINATES (A.U.)
----------------------------
  NO LB      ZA    FRAG     MASS         X           Y           Z
   0 C     6.0000    0    12.011   -4.673094   -0.886349   -1.781533
   1 C     6.0000    0    12.011   -4.908304   -0.695368    0.773222
   2 O     8.0000    0    15.999   -2.756246   -1.404980    1.922739
   3 C     6.0000    0    12.011   -1.079424   -2.037106    0.095522
   4 C     6.0000    0    12.011   -2.175814   -1.779226   -2.225343
   5 H     1.0000    0     1.008   -1.287966   -2.167822   -4.032121
   6 C     6.0000    0    12.011    1.472038   -2.986974    0.872755
   7 O     8.0000    0    15.999    3.560229   -2.057739   -0.509006
   8 C     6.0000    0    12.011    4.709128    0.279101    0.094583
   9 C     6.0000    0    12.011    3.491098    2.771906   -0.770668
  10 C     6.0000    0    12.011    1.447800    3.845894    0.898010
  11 O     8.0000    0    15.999   -0.233109    5.202684    0.197442
  12 H     1.0000    0     1.008    1.717510    3.432857    2.957182
  13 H     1.0000    0     1.008    4.998222    4.212382   -0.732667
  14 H     1.0000    0     1.008    2.808201    2.623282   -2.723706
  15 H     1.0000    0     1.008    6.544780    0.134906   -0.861163
[...]
 186   0.0000       2.967513        80.7501 
 187   0.0000       3.028859        82.4195 
 188   0.0000       3.048655        82.9581 
 189   0.0000       3.065512        83.4168 
 190   0.0000       3.085857        83.9704 
 191   0.0000       3.132254        85.2330 
 192   0.0000       3.145862        85.6033 
 193   0.0000       3.181696        86.5784 
 194   0.0000       3.234846        88.0246 
 195   0.0000       3.268951        88.9527 
 196   0.0000       3.285338        89.3986 
 197   0.0000       3.441630        93.6515 
 198   0.0000       3.515648        95.6656 
 199   0.0000       3.533761        96.1585 
 200   0.0000       3.584964        97.5518 
 201   0.0000       3.610284        98.2408 
 202   0.0000       3.724239       101.3417 
 203   0.0000       3.728211       101.4498 

                    ********************************
                    * MULLIKEN POPULATION ANALYSIS *
                    ********************************

-----------------------
MULLIKEN ATOMIC CHARGES
-----------------------
   0 C :   -0.047426
   1 C :    0.121900
   2 O :   -0.233940
   3 C :   -0.063335
   4 C :   -0.066031
   5 H :    0.023721
   6 C :    0.316586
   7 O :   -0.394908
   8 C :    0.166233
   9 C :   -0.080135
  10 C :    0.119140
  11 O :   -0.208536
  12 H :    0.008810
  13 H :    0.068269
  14 H :    0.066010
  15 H :    0.044180
  16 H :    0.009855
  17 H :    0.053858
  18 H :    0.018519
  19 H :    0.043541
  20 H :    0.033687
Sum of atomic charges:   -0.0000000

--------------------------------
MULLIKEN REDUCED ORBITAL CHARGES
--------------------------------
  0 C s       :     3.166718  s :     3.166718
      pz      :     0.897715  p :     2.846100
      px      :     0.919061
      py      :     1.029324
      dz2     :     0.009487  d :     0.034607
      dxz     :     0.008428
      dyz     :     0.006537
      dx2y2   :     0.005246
      dxy     :     0.004910
  1 C s       :     3.150892  s :     3.150892
      pz      :     0.868204  p :     2.662495
      px      :     0.794241
      py      :     1.000050
      dz2     :     0.011985  d :     0.064713
      dxz     :     0.021045
      dyz     :     0.011821
      dx2y2   :     0.009784
      dxy     :     0.010079
  2 O s       :     3.723430  s :     3.723430
      pz      :     1.594445  p :     4.489363
      px      :     1.304615
      py      :     1.590302
      dz2     :     0.003822  d :     0.021146
      dxz     :     0.006886
      dyz     :     0.003690
      dx2y2   :     0.003500
      dxy     :     0.003248
  3 C s       :     3.100373  s :     3.100373
      pz      :     0.875888  p :     2.891098
      px      :     0.945593
      py      :     1.069618
      dz2     :     0.014404  d :     0.071864
      dxz     :     0.024669
      dyz     :     0.014667
      dx2y2   :     0.008782
      dxy     :     0.009342
  4 C s       :     3.225903  s :     3.225903
      pz      :     0.880117  p :     2.805758
      px      :     0.907810
      py      :     1.017830
      dz2     :     0.007715  d :     0.034369
      dxz     :     0.010165
      dyz     :     0.006042
      dx2y2   :     0.005093
      dxy     :     0.005354
  5 H s       :     0.952569  s :     0.952569
      pz      :     0.012857  p :     0.023710
      px      :     0.005434
      py      :     0.005419
  6 C s       :     2.907620  s :     2.907620
      pz      :     0.900542  p :     2.711934
      px      :     0.788423
      py      :     1.022969
      dz2     :     0.015192  d :     0.063860
      dxz     :     0.012819
      dyz     :     0.005441
      dx2y2   :     0.018757
      dxy     :     0.011651
  7 O s       :     3.753418  s :     3.753418
      pz      :     1.676307  p :     4.625230
      px      :     1.513876
      py      :     1.435046
      dz2     :     0.002415  d :     0.016260
      dxz     :     0.004003
      dyz     :     0.003226
      dx2y2   :     0.004251
      dxy     :     0.002366
  8 C s       :     3.009568  s :     3.009568
      pz      :     0.984991  p :     2.759853
      px      :     1.001285
      py      :     0.773577
      dz2     :     0.013388  d :     0.064346
      dxz     :     0.006036
      dyz     :     0.010742
      dx2y2   :     0.018702
      dxy     :     0.015478
  9 C s       :     3.033553  s :     3.033553
      pz      :     1.046526  p :     3.015491
      px      :     0.987883
      py      :     0.981082
      dz2     :     0.007555  d :     0.031092
      dxz     :     0.006732
      dyz     :     0.003635
      dx2y2   :     0.004512
      dxy     :     0.008658
 10 C s       :     3.190597  s :     3.190597
      pz      :     0.953625  p :     2.600168
      px      :     0.866836
      py      :     0.779707
      dz2     :     0.020516  d :     0.090095
      dxz     :     0.023078
      dyz     :     0.011556
      dx2y2   :     0.019079
      dxy     :     0.015866
 11 O s       :     3.757990  s :     3.757990
      pz      :     1.732307  p :     4.431380
      px      :     1.398825
      py      :     1.300249
      dz2     :     0.002345  d :     0.019165
      dxz     :     0.004074
      dyz     :     0.001893
      dx2y2   :     0.005427
      dxy     :     0.005427
 12 H s       :     0.972551  s :     0.972551
      pz      :     0.014329  p :     0.018639
      px      :     0.001773
      py      :     0.002538
 13 H s       :     0.907783  s :     0.907783
      pz      :     0.004785  p :     0.023948
      px      :     0.008721
      py      :     0.010442
 14 H s       :     0.912127  s :     0.912127
      pz      :     0.013372  p :     0.021863
      px      :     0.004681
      py      :     0.003810
 15 H s       :     0.935340  s :     0.935340
      pz      :     0.006218  p :     0.020480
      px      :     0.012192
      py      :     0.002070
 16 H s       :     0.968933  s :     0.968933
      pz      :     0.014476  p :     0.021212
      px      :     0.004208
      py      :     0.002528
 17 H s       :     0.924839  s :     0.924839
      pz      :     0.004115  p :     0.021303
      px      :     0.002774
      py      :     0.014414
 18 H s       :     0.959993  s :     0.959993
      pz      :     0.014114  p :     0.021489
      px      :     0.002945
      py      :     0.004430
 19 H s       :     0.933448  s :     0.933448
      pz      :     0.006998  p :     0.023010
      px      :     0.009197
      py      :     0.006815
 20 H s       :     0.942995  s :     0.942995
      pz      :     0.008586  p :     0.023318
      px      :     0.009066
      py      :     0.005667


                     *******************************
                     * LOEWDIN POPULATION ANALYSIS *
                     *******************************

----------------------
LOEWDIN ATOMIC CHARGES
----------------------
   0 C :   -0.076621
   1 C :    0.032667
   2 O :    0.004643
   3 C :   -0.023187
   4 C :   -0.073380
   5 H :    0.036165
   6 C :    0.067354
   7 O :   -0.163746
   8 C :    0.071410
   9 C :   -0.102773
  10 C :    0.105633
  11 O :   -0.133209
  12 H :   -0.010173
  13 H :    0.056095
  14 H :    0.047276
  15 H :    0.029867
  16 H :    0.009153
  17 H :    0.037408
  18 H :    0.019230
  19 H :    0.028742
  20 H :    0.037444

-------------------------------
LOEWDIN REDUCED ORBITAL CHARGES
-------------------------------
  0 C s       :     2.864208  s :     2.864208
      pz      :     1.059761  p :     3.121970
      px      :     1.031873
      py      :     1.030336
      dz2     :     0.029596  d :     0.090442
      dxz     :     0.023959
      dyz     :     0.014129
      dx2y2   :     0.011543
      dxy     :     0.011215
  1 C s       :     2.870288  s :     2.870288
      pz      :     1.031913  p :     2.951305
      px      :     0.903036
      py      :     1.016356
      dz2     :     0.031947  d :     0.145739
      dxz     :     0.049323
      dyz     :     0.025140
      dx2y2   :     0.019393
      dxy     :     0.019936
  2 O s       :     3.417597  s :     3.417597
      pz      :     1.620164  p :     4.538461
      px      :     1.346195
      py      :     1.572102
      dz2     :     0.006045  d :     0.039299
      dxz     :     0.013494
      dyz     :     0.005298
      dx2y2   :     0.007431
      dxy     :     0.007030
  3 C s       :     2.866624  s :     2.866624
      pz      :     0.975680  p :     2.994879
      px      :     0.986577
      py      :     1.032622
      dz2     :     0.036279  d :     0.161684
      dxz     :     0.058810
      dyz     :     0.032019
      dx2y2   :     0.016958
      dxy     :     0.017619
  4 C s       :     2.862055  s :     2.862055
      pz      :     1.051771  p :     3.120681
      px      :     1.031833
      py      :     1.037077
      dz2     :     0.024591  d :     0.090645
      dxz     :     0.028661
      dyz     :     0.012769
      dx2y2   :     0.011950
      dxy     :     0.012674
  5 H s       :     0.894262  s :     0.894262
      pz      :     0.035724  p :     0.069574
      px      :     0.017143
      py      :     0.016707
  6 C s       :     2.833478  s :     2.833478
      pz      :     0.990069  p :     2.949664
      px      :     0.913764
      py      :     1.045831
      dz2     :     0.038153  d :     0.149503
      dxz     :     0.029512
      dyz     :     0.010737
      dx2y2   :     0.045339
      dxy     :     0.025761
  7 O s       :     3.447936  s :     3.447936
      pz      :     1.697541  p :     4.686289
      px      :     1.525640
      py      :     1.463108
      dz2     :     0.003840  d :     0.029521
      dxz     :     0.006880
      dyz     :     0.005456
      dx2y2   :     0.007980
      dxy     :     0.005365
  8 C s       :     2.839829  s :     2.839829
      pz      :     1.050112  p :     2.941238
      px      :     1.016043
      py      :     0.875083
      dz2     :     0.033387  d :     0.147522
      dxz     :     0.013657
      dyz     :     0.023303
      dx2y2   :     0.042178
      dxy     :     0.034997
  9 C s       :     2.860680  s :     2.860680
      pz      :     1.071968  p :     3.160408
      px      :     1.049882
      py      :     1.038559
      dz2     :     0.019663  d :     0.081685
      dxz     :     0.018359
      dyz     :     0.008208
      dx2y2   :     0.011638
      dxy     :     0.023817
 10 C s       :     2.903722  s :     2.903722
      pz      :     1.021803  p :     2.785750
      px      :     0.959820
      py      :     0.804127
      dz2     :     0.048019  d :     0.204894
      dxz     :     0.055593
      dyz     :     0.027657
      dx2y2   :     0.037844
      dxy     :     0.035780
 11 O s       :     3.543740  s :     3.543740
      pz      :     1.747644  p :     4.557382
      px      :     1.481181
      py      :     1.328557
      dz2     :     0.004168  d :     0.032087
      dxz     :     0.007122
      dyz     :     0.003327
      dx2y2   :     0.007423
      dxy     :     0.010046
 12 H s       :     0.947078  s :     0.947078
      pz      :     0.045269  p :     0.063095
      px      :     0.007968
      py      :     0.009858
 13 H s       :     0.876112  s :     0.876112
      pz      :     0.013581  p :     0.067792
      px      :     0.023835
      py      :     0.030376
 14 H s       :     0.885117  s :     0.885117
      pz      :     0.040708  p :     0.067607
      px      :     0.014827
      py      :     0.012072
 15 H s       :     0.907316  s :     0.907316
      pz      :     0.017099  p :     0.062817
      px      :     0.036907
      py      :     0.008811
 16 H s       :     0.927124  s :     0.927124
      pz      :     0.042057  p :     0.063722
      px      :     0.012540
      py      :     0.009126
 17 H s       :     0.899328  s :     0.899328
      pz      :     0.010782  p :     0.063264
      px      :     0.009782
      py      :     0.042700
 18 H s       :     0.915961  s :     0.915961
      pz      :     0.042556  p :     0.064809
      px      :     0.009508
      py      :     0.012746
 19 H s       :     0.900984  s :     0.900984
      pz      :     0.022008  p :     0.070274
      px      :     0.027671
      py      :     0.020595
 20 H s       :     0.893558  s :     0.893558
      pz      :     0.024910  p :     0.068998
      px      :     0.026841
      py      :     0.017247


                      *****************************
                      * MAYER POPULATION ANALYSIS *
                      *****************************

  NA   - Mulliken gross atomic population
  ZA   - Total nuclear charge
  QA   - Mulliken gross atomic charge
  VA   - Mayer's total valence
  BVA  - Mayer's bonded valence
  FA   - Mayer's free valence

  ATOM       NA         ZA         QA         VA         BVA        FA
  0 C      6.0474     6.0000    -0.0474     3.8316     3.8316    -0.0000
  1 C      5.8781     6.0000     0.1219     3.8299     3.8299    -0.0000
  2 O      8.2339     8.0000    -0.2339     2.3622     2.3622    -0.0000
  3 C      6.0633     6.0000    -0.0633     3.8878     3.8878     0.0000
  4 C      6.0660     6.0000    -0.0660     3.8920     3.8920     0.0000
  5 H      0.9763     1.0000     0.0237     1.0015     1.0015    -0.0000
  6 C      5.6834     6.0000     0.3166     3.9250     3.9250     0.0000
  7 O      8.3949     8.0000    -0.3949     2.0883     2.0883    -0.0000
  8 C      5.8338     6.0000     0.1662     4.0262     4.0262    -0.0000
  9 C      6.0801     6.0000    -0.0801     3.8048     3.8048    -0.0000
 10 C      5.8809     6.0000     0.1191     4.1011     4.1011     0.0000
 11 O      8.2085     8.0000    -0.2085     2.2454     2.2454    -0.0000
 12 H      0.9912     1.0000     0.0088     0.9832     0.9832     0.0000
 13 H      0.9317     1.0000     0.0683     0.9897     0.9897    -0.0000
 14 H      0.9340     1.0000     0.0660     1.0115     1.0115     0.0000
 15 H      0.9558     1.0000     0.0442     0.9837     0.9837    -0.0000
 16 H      0.9901     1.0000     0.0099     0.9866     0.9866    -0.0000
 17 H      0.9461     1.0000     0.0539     0.9876     0.9876    -0.0000
 18 H      0.9815     1.0000     0.0185     1.0033     1.0033    -0.0000
 19 H      0.9565     1.0000     0.0435     1.0002     1.0002     0.0000
 20 H      0.9663     1.0000     0.0337     0.9942     0.9942    -0.0000

  Mayer bond orders larger than 0.100000
B(  0-C ,  1-C ) :   1.5889 B(  0-C ,  4-C ) :   1.2112 B(  0-C , 20-H ) :   0.9985 
B(  1-C ,  2-O ) :   1.1162 B(  1-C , 19-H ) :   1.0002 B(  2-O ,  3-C ) :   1.1178 
B(  3-C ,  4-C ) :   1.6185 B(  3-C ,  6-C ) :   1.0023 B(  4-C ,  5-H ) :   1.0110 
B(  6-C ,  7-O ) :   1.0345 B(  6-C , 17-H ) :   0.9375 B(  6-C , 18-H ) :   0.9323 
B(  7-O ,  8-C ) :   0.9992 B(  8-C ,  9-C ) :   1.0365 B(  8-C , 15-H ) :   0.9566 
B(  8-C , 16-H ) :   0.9445 B(  9-C , 10-C ) :   0.9449 B(  9-C , 13-H ) :   0.9287 
B(  9-C , 14-H ) :   0.9295 B( 10-C , 11-O ) :   2.1442 B( 10-C , 12-H ) :   0.9406 


-------
TIMINGS
-------

Total SCF time: 0 days 0 hours 0 min 54 sec 

Total time                  ....      54.906 sec
Sum of individual times     ....      54.713 sec  ( 99.6%)

Fock matrix formation       ....      53.232 sec  ( 97.0%)
  XC integration            ....       3.422 sec  (  6.4% of F)
    Basis function eval.    ....       1.053 sec  ( 30.8% of XC)
    Density eval.           ....       0.634 sec  ( 18.5% of XC)
    XC-Functional eval.     ....       0.853 sec  ( 24.9% of XC)
    XC-Potential eval.      ....       0.787 sec  ( 23.0% of XC)
Diagonalization             ....       0.005 sec  (  0.0%)
Density matrix formation    ....       0.004 sec  (  0.0%)
Population analysis         ....       0.005 sec  (  0.0%)
Initial guess               ....       0.005 sec  (  0.0%)
Orbital Transformation      ....       0.000 sec  (  0.0%)
Orbital Orthonormalization  ....       0.003 sec  (  0.0%)
DIIS solution               ....       0.001 sec  (  0.0%)
SOSCF solution              ....       0.017 sec  (  0.0%)
Grid generation             ....       1.443 sec  (  2.6%)


-------------------------------------------------------------------------------
                          DFT DISPERSION CORRECTION                            
                                                                               
                              DFTD3 V3.1  Rev 1                                
                              USING zero damping                               
-------------------------------------------------------------------------------
The omegaB97X-D3 functional is recognized. Fit by Chai et al.
Active option DFTDOPT                   ...         3   

molecular C6(AA) [au] = 4202.664758 


            DFT-D V3
 parameters
 s6 scaling factor         :     1.0000 
 rs6 scaling factor        :     1.2810 
 s8 scaling factor         :     1.0000 
 rs8 scaling factor        :     1.0940 
 Damping factor alpha6     :    14.0000 
 Damping factor alpha8     :    16.0000 
 ad hoc parameters k1-k3   :    16.0000     1.3333    -4.0000 

 Edisp/kcal,au: -5.726344934719  -0.009125510547 
 E6   /kcal   :  -2.402534835 
 E8   /kcal   :  -3.323810100 
 % E8         :  58.044182415 

-------------------------   ----------------
Dispersion correction           -0.009125511
-------------------------   ----------------


-------------------------   --------------------
FINAL SINGLE POINT ENERGY      -535.948651688758
-------------------------   --------------------

                                *** OPTIMIZATION RUN DONE ***

                            ***************************************
                            *     ORCA property calculations      *
                            ***************************************

                                    ---------------------
                                    Active property flags
                                    ---------------------
   (+) Dipole Moment


------------------------------------------------------------------------------
                       ORCA ELECTRIC PROPERTIES CALCULATION
------------------------------------------------------------------------------

Dipole Moment Calculation                       ... on
Quadrupole Moment Calculation                   ... off
Polarizability Calculation                      ... off
GBWName                                         ... 063041359.gbw
Electron density file                           ... 063041359.scfp
The origin for moment calculation is the CENTER OF MASS  = ( 0.002903,  0.025389 -0.024117)

-------------
DIPOLE MOMENT
-------------
                                X             Y             Z
Electronic contribution:     -4.55354      -0.45149       0.49999
Nuclear contribution   :      5.13582       0.25357      -0.23263
                        -----------------------------------------
Total Dipole Moment    :      0.58228      -0.19792       0.26736
                        -----------------------------------------
Magnitude (a.u.)       :      0.67060
Magnitude (Debye)      :      1.70452



--------------------
Rotational spectrum 
--------------------
 
Rotational constants in cm-1:     0.053889     0.034849     0.025764 
Rotational constants in MHz :  1615.542957  1044.759355   772.380251 

 Dipole components along the rotational axes: 
x,y,z [a.u.] :     0.557078    -0.260280     0.267619 
x,y,z [Debye]:     1.415980    -0.661579     0.680233 

 

Timings for individual modules:

Sum of individual times         ...     1733.072 sec (=  28.885 min)
GTO integral calculation        ...        3.039 sec (=   0.051 min)   0.2 %
SCF iterations                  ...     1203.274 sec (=  20.055 min)  69.4 %
SCF Gradient evaluation         ...      525.881 sec (=   8.765 min)  30.3 %
Geometry relaxation             ...        0.877 sec (=   0.015 min)   0.1 %
                             ****ORCA TERMINATED NORMALLY****
TOTAL RUN TIME: 0 days 0 hours 28 minutes 54 seconds 568 msec
