
                                 *****************
                                 * O   R   C   A *
                                 *****************

           --- An Ab Initio, DFT and Semiempirical electronic structure package ---

                  #######################################################
                  #                        -***-                        #
                  #          Department of theory and spectroscopy      #
                  #               Directorship: Frank Neese             #
                  #        Max Planck Institute fuer Kohlenforschung    #
                  #                Kaiser Wilhelm Platz 1               #
                  #                 D-45470 Muelheim/Ruhr               #
                  #                      Germany                        #
                  #                                                     #
                  #                  All rights reserved                #
                  #                        -***-                        #
                  #######################################################


                         Program Version 4.2.0 -  RELEASE  -


 With contributions from (in alphabetic order):
   Daniel Aravena         : Magnetic Suceptibility
   Michael Atanasov       : Ab Initio Ligand Field Theory (pilot matlab implementation)
   Alexander A. Auer      : GIAO ZORA, VPT2
   Ute Becker             : Parallelization
   Giovanni Bistoni       : ED, misc. LED, open-shell LED, HFLED
   Martin Brehm           : Molecular dynamics
   Dmytro Bykov           : SCF Hessian
   Vijay G. Chilkuri      : MRCI spin determinant printing, contributions to CSF-ICE
   Dipayan Datta          : RHF DLPNO-CCSD density
   Achintya Kumar Dutta   : EOM-CC, STEOM-CC
   Dmitry Ganyushin       : Spin-Orbit,Spin-Spin,Magnetic field MRCI
   Miquel Garcia          : C-PCM Hessian, Gaussian charge scheme
   Yang Guo               : DLPNO-NEVPT2, CIM, IAO-localization
   Andreas Hansen         : Spin unrestricted coupled pair/coupled cluster methods
   Benjamin Helmich-Paris : CASSCF linear response (MC-RPA)
   Lee Huntington         : MR-EOM, pCC
   Robert Izsak           : Overlap fitted RIJCOSX, COSX-SCS-MP3, EOM
   Christian Kollmar      : KDIIS, OOCD, Brueckner-CCSD(T), CCSD density
   Simone Kossmann        : Meta GGA functionals, TD-DFT gradient, OOMP2, MP2 Hessian
   Martin Krupicka        : AUTO-CI
   Lucas Lang             : DCDCAS
   Dagmar Lenk            : GEPOL surface, SMD
   Dimitrios Liakos       : Extrapolation schemes; Compound Job, initial MDCI parallelization
   Dimitrios Manganas     : Further ROCIS development; embedding schemes
   Dimitrios Pantazis     : SARC Basis sets
   Taras Petrenko         : DFT Hessian,TD-DFT gradient, ASA, ECA, R-Raman, ABS, FL, XAS/XES, NRVS
   Peter Pinski           : DLPNO-MP2, DLPNO-MP2 Gradient
   Christoph Reimann      : Effective Core Potentials
   Marius Retegan         : Local ZFS, SOC
   Christoph Riplinger    : Optimizer, TS searches, QM/MM, DLPNO-CCSD(T), (RO)-DLPNO pert. Triples
   Tobias Risthaus        : Range-separated hybrids, TD-DFT gradient, RPA, STAB
   Michael Roemelt        : Original ROCIS implementation
   Masaaki Saitow         : Open-shell DLPNO-CCSD energy and density
   Barbara Sandhoefer     : DKH picture change effects
   Avijit Sen             : IP-ROCIS
   Kantharuban Sivalingam : CASSCF convergence, NEVPT2, FIC-MRCI
   Bernardo de Souza      : ESD, SOC TD-DFT
   Georgi Stoychev        : AutoAux, RI-MP2 NMR
   Willem Van den Heuvel  : Paramagnetic NMR
   Boris Wezisla          : Elementary symmetry handling
   Frank Wennmohs         : Technical directorship


 We gratefully acknowledge several colleagues who have allowed us to
 interface, adapt or use parts of their codes:
   Stefan Grimme, W. Hujo, H. Kruse,             : VdW corrections, initial TS optimization,
                  C. Bannwarth                     DFT functionals, gCP, sTDA/sTD-DF
   Ed Valeev, F. Pavosevic, A. Kumar             : LibInt (2-el integral package), F12 methods
   Garnet Chan, S. Sharma, J. Yang, R. Olivares  : DMRG
   Ulf Ekstrom                                   : XCFun DFT Library
   Mihaly Kallay                                 : mrcc  (arbitrary order and MRCC methods)
   Andreas Klamt, Michael Diedenhofen            : otool_cosmo (COSMO solvation model)
   Jiri Pittner, Ondrej Demel                    : Mk-CCSD
   Frank Weinhold                                : gennbo (NPA and NBO analysis)
   Christopher J. Cramer and Donald G. Truhlar   : smd solvation model
   Lars Goerigk                                  : TD-DFT with DH, B97 family of functionals
   V. Asgeirsson, H. Jonsson                     : NEB implementation
   FAccTs GmbH                                   : IRC, NEB, NEB-TS, Multilevel, MM, QM/MM, CI optimization
   S Lehtola, MJT Oliveira, MAL Marques          : LibXC Library


 Your calculation uses the libint2 library for the computation of 2-el integrals
 For citations please refer to: http://libint.valeyev.net

 Your ORCA version has been built with support for libXC version: 4.2.3
 For citations please refer to: https://tddft.org/programs/libxc/

 This ORCA versions uses:
   CBLAS   interface :  Fast vector & matrix operations
   LAPACKE interface :  Fast linear algebra routines
   SCALAPACK package :  Parallel linear algebra routines


Your calculation utilizes the atom-pairwise dispersion correction
with the zero-damping scheme (D30)
Cite in your paper:
S.Grimme, J.Antony, S.Ehrlich and H.Krieg, J.Chem.Phys., 132, (2010), 154104 
   

XCFun DFT library Copyright 2009-2010 Ulf Ekstrom and contributors.
See http://admol.org/xcfun for more information. This is free soft-
ware; see the source code for copying conditions. There is ABSOLUTELY
NO WARRANTY; not even for MERCHANTABILITY or FITNESS FOR A PARTICULAR
PURPOSE. For details see the documentation. Scientific users of this 
library should cite U. Ekstrom, L. Visscher, R. Bast, A. J. Thorvald-
sen and K. Ruud; J.Chem.Theor.Comp. 2010, DOI: 10.1021/ct100117s
XCFun Version 0.99 
----- Orbital basis set information -----
Your calculation utilizes the basis: def2-SVP
   F. Weigend and R. Ahlrichs, Phys. Chem. Chem. Phys. 7, 3297 (2005).

================================================================================
                                        WARNINGS
                       Please study these warnings very carefully!
================================================================================


WARNING: Geometry Optimization
  ===> : Switching off AutoStart
         For restart on a previous wavefunction, please use MOREAD

INFO   : the flag for use of LIBINT has been found!

================================================================================
                                       INPUT FILE
================================================================================
NAME = 065625034.inp
|  1> # ORCA input file
|  2> # -53.64075382
|  3> ! wB97X-D3 def2-SVP Opt
|  4> * xyz 0 1
|  5>    C       -4.51640        -0.04110        -0.55700
|  6>    O       -3.13010         0.15070        -0.42250
|  7>    C       -2.78890         1.44140         0.06230
|  8>    C       -1.29050         1.52060         0.14990
|  9>    C       -0.53930         1.92160        -0.94640
| 10>    C        0.84320         1.90740        -0.89290
| 11>    C        1.50530         1.48510         0.25270
| 12>    C        0.74890         1.11500         1.35820
| 13>    C       -0.63170         1.13020         1.30850
| 14>    H       -1.20650         0.83230         2.17380
| 15>    H        1.24850         0.80370         2.26480
| 16>    C        3.01110         1.37740         0.30780
| 17>    N        3.52150         0.03200         0.52890
| 18>    H        2.99410        -0.41500         1.27250
| 19>    C        3.53570        -0.85270        -0.61370
| 20>    C        2.15750        -1.25820        -1.16380
| 21>    O        1.36420        -1.71710        -0.09240
| 22>    C        0.03020        -1.96750        -0.46260
| 23>    C       -0.75820        -2.35980         0.78890
| 24>    O       -2.13840        -2.40230         0.55910
| 25>    H       -2.42670        -1.52870         0.24420
| 26>    H       -0.46580        -3.35920         1.11880
| 27>    H       -0.50680        -1.64430         1.58410
| 28>    H       -0.01890        -2.76830        -1.21590
| 29>    H       -0.41880        -1.06000        -0.89970
| 30>    H        1.66720        -0.40080        -1.64710
| 31>    H        2.27870        -2.04990        -1.92000
| 32>    H        4.10650        -0.37860        -1.41740
| 33>    H        4.06250        -1.75730        -0.29920
| 34>    H        3.37930         1.99070         1.13960
| 35>    H        3.45400         1.75880        -0.61600
| 36>    H        1.41460         2.21880        -1.75690
| 37>    H       -1.03990         2.23430        -1.85160
| 38>    H       -3.18040         2.20670        -0.62470
| 39>    H       -3.24670         1.59670         1.05120
| 40>    H       -5.02700         0.07620         0.40620
| 41>    H       -4.65530        -1.05700        -0.92030
| 42>    H       -4.94510         0.66990        -1.27300
| 43> *
| 44> 
| 45>                          ****END OF INPUT****
================================================================================

                       *****************************
                       * Geometry Optimization Run *
                       *****************************

Geometry optimization settings:
Update method            Update   .... BFGS
Choice of coordinates    CoordSys .... Z-matrix Internals
Initial Hessian          InHess   .... Almoef's Model

Convergence Tolerances:
Energy Change            TolE     ....  5.0000e-06 Eh
Max. Gradient            TolMAXG  ....  3.0000e-04 Eh/bohr
RMS Gradient             TolRMSG  ....  1.0000e-04 Eh/bohr
Max. Displacement        TolMAXD  ....  4.0000e-03 bohr
RMS Displacement         TolRMSD  ....  2.0000e-03 bohr
Strict Convergence                ....  False
------------------------------------------------------------------------------
                        ORCA OPTIMIZATION COORDINATE SETUP
------------------------------------------------------------------------------

The optimization will be done in new redundant internal coordinates
Making redundant internal coordinates   ...  (new redundants) done
Evaluating the initial hessian          ...  (Almloef) done
Evaluating the coordinates              ...  done
Calculating the B-matrix                .... done
Calculating the G-matrix                .... done
Diagonalizing the G-matrix              .... done
Small eigenvalue found = 1.482e-03
Small eigenvalue found = 8.053e-03
Small eigenvalue found = 1.229e-02
Small eigenvalue found = 1.766e-02
Small eigenvalue found = 2.497e-02
The first mode is                       ....   78
The number of degrees of freedom        ....  108

    -----------------------------------------------------------------
                    Redundant Internal Coordinates


    -----------------------------------------------------------------
         Definition                    Initial Value    Approx d2E/dq
    -----------------------------------------------------------------
      1. B(O   1,C   0)                  1.4060         0.527743   
      2. B(C   2,O   1)                  1.4203         0.500583   
      3. B(C   3,C   2)                  1.5030         0.412458   
      4. B(C   4,C   3)                  1.3882         0.629044   
      5. B(C   5,C   4)                  1.3836         0.639642   
      6. B(C   6,C   5)                  1.3889         0.627268   
      7. B(C   7,C   6)                  1.3897         0.625503   
      8. B(C   8,C   7)                  1.3816         0.644430   
      9. B(C   8,C   3)                  1.3888         0.627542   
     10. B(H   9,C   8)                  1.0807         0.372634   
     11. B(H  10,C   7)                  1.0809         0.372287   
     12. B(C  11,C   6)                  1.5107         0.401094   
     13. B(N  12,C  11)                  1.4558         0.439358   
     14. B(H  13,N  12)                  1.0153         0.424313   
     15. B(C  14,N  12)                  1.4451         0.456986   
     16. B(C  15,C  14)                  1.5383         0.362309   
     17. B(O  16,C  15)                  1.4099         0.520151   
     18. B(C  17,O  16)                  1.4069         0.525955   
     19. B(C  18,C  17)                  1.5303         0.373204   
     20. B(O  19,C  18)                  1.3998         0.539720   
     21. B(H  20,O  19)                  0.9723         0.496901   
     22. B(H  20,O   1)                  1.9390         0.014258   
     23. B(H  21,C  18)                  1.0923         0.357062   
     24. B(H  22,C  18)                  1.0989         0.348573   
     25. B(H  23,C  17)                  1.1005         0.346444   
     26. B(H  24,C  17)                  1.1028         0.343533   
     27. B(H  25,C  15)                  1.0996         0.347629   
     28. B(H  26,C  15)                  1.1015         0.345195   
     29. B(H  27,C  14)                  1.0939         0.355037   
     30. B(H  28,C  14)                  1.0930         0.356105   
     31. B(H  29,C  11)                  1.0971         0.350846   
     32. B(H  30,C  11)                  1.0932         0.355924   
     33. B(H  31,C   5)                  1.0816         0.371319   
     34. B(H  32,C   4)                  1.0806         0.372706   
     35. B(H  33,C   2)                  1.1004         0.346575   
     36. B(H  34,C   2)                  1.1007         0.346173   
     37. B(H  35,C   0)                  1.0965         0.351654   
     38. B(H  36,C   0)                  1.0878         0.363007   
     39. B(H  37,C   0)                  1.0963         0.351810   
     40. A(H  36,C   0,H  37)          109.7313         0.290144   
     41. A(O   1,C   0,H  36)          106.5740         0.341825   
     42. A(O   1,C   0,H  35)          111.1333         0.340013   
     43. A(O   1,C   0,H  37)          111.0737         0.340038   
     44. A(H  35,C   0,H  36)          109.5014         0.290124   
     45. A(H  35,C   0,H  37)          108.7981         0.288703   
     46. A(C   0,O   1,C   2)          113.1717         0.400787   
     47. A(O   1,C   2,H  33)          109.4769         0.336214   
     48. A(O   1,C   2,C   3)          107.8941         0.386317   
     49. A(O   1,C   2,H  34)          109.5694         0.336149   
     50. A(C   3,C   2,H  33)          110.7575         0.327576   
     51. A(C   3,C   2,H  34)          110.7826         0.327513   
     52. A(H  33,C   2,H  34)          108.3480         0.287320   
     53. A(C   2,C   3,C   8)          120.4447         0.404520   
     54. A(C   4,C   3,C   8)          118.9042         0.436148   
     55. A(C   2,C   3,C   4)          120.5753         0.404690   
     56. A(C   5,C   4,H  32)          119.8833         0.356857   
     57. A(C   3,C   4,H  32)          119.6332         0.355846   
     58. A(C   3,C   4,C   5)          120.4785         0.437652   
     59. A(C   4,C   5,H  31)          119.6041         0.356631   
     60. A(C   4,C   5,C   6)          120.7526         0.437429   
     61. A(C   6,C   5,H  31)          119.6402         0.355450   
     62. A(C   5,C   6,C  11)          121.7982         0.402500   
     63. A(C   5,C   6,C   7)          118.5318         0.435670   
     64. A(C   7,C   6,C  11)          119.6396         0.402300   
     65. A(C   8,C   7,H  10)          119.6831         0.357241   
     66. A(C   6,C   7,H  10)          119.4936         0.355437   
     67. A(C   6,C   7,C   8)          120.8212         0.437794   
     68. A(C   7,C   8,H   9)          119.9782         0.357297   
     69. A(C   3,C   8,H   9)          119.5481         0.355689   
     70. A(C   3,C   8,C   7)          120.4730         0.438051   
     71. A(H  29,C  11,H  30)          108.0413         0.289124   
     72. A(N  12,C  11,H  30)          107.9823         0.330471   
     73. A(C   6,C  11,H  30)          110.3743         0.327505   
     74. A(N  12,C  11,H  29)          106.4875         0.329687   
     75. A(C   6,C  11,H  29)          108.8044         0.326730   
     76. A(C   6,C  11,N  12)          114.8904         0.375846   
     77. A(H  13,N  12,C  14)          108.3389         0.339563   
     78. A(C  11,N  12,C  14)          116.6869         0.382011   
     79. A(C  11,N  12,H  13)          109.6314         0.337342   
     80. A(H  27,C  14,H  28)          108.5789         0.289686   
     81. A(C  15,C  14,H  28)          108.4530         0.322104   
     82. A(N  12,C  14,H  28)          106.4926         0.332659   
     83. A(C  15,C  14,H  27)          108.6033         0.321946   
     84. A(N  12,C  14,H  27)          108.7061         0.332493   
     85. A(N  12,C  14,C  15)          115.8044         0.371826   
     86. A(C  14,C  15,O  16)          108.5510         0.380236   
     87. A(H  25,C  15,H  26)          107.9240         0.287329   
     88. A(O  16,C  15,H  26)          110.4667         0.338144   
     89. A(C  14,C  15,H  26)          109.6561         0.320468   
     90. A(O  16,C  15,H  25)          109.6886         0.338540   
     91. A(C  14,C  15,H  25)          110.5553         0.320837   
     92. A(C  15,O  16,C  17)          113.0472         0.403264   
     93. A(O  16,C  17,C  18)          108.5990         0.382933   
     94. A(H  23,C  17,H  24)          108.0181         0.286959   
     95. A(C  18,C  17,H  24)          108.9863         0.321771   
     96. A(O  16,C  17,H  24)          110.1135         0.338497   
     97. A(C  18,C  17,H  23)          110.5039         0.322216   
     98. A(O  16,C  17,H  23)          110.6053         0.338974   
     99. A(H  21,C  18,H  22)          108.4179         0.288975   
    100. A(O  19,C  18,H  22)          111.3546         0.340789   
    101. A(C  17,C  18,H  22)          107.8808         0.322540   
    102. A(O  19,C  18,H  21)          106.6028         0.342164   
    103. A(C  17,C  18,H  21)          110.0990         0.323815   
    104. A(C  17,C  18,O  19)          112.4267         0.384657   
    105. A(C  18,O  19,H  20)          108.5557         0.358648   
    106. D(C   2,O   1,C   0,H  35)    -60.1303         0.024002   
    107. D(C   2,O   1,C   0,H  37)     61.1469         0.024002   
    108. D(C   2,O   1,C   0,H  36)   -179.3695         0.024002   
    109. D(H  34,C   2,O   1,C   0)     59.7260         0.021494   
    110. D(H  33,C   2,O   1,C   0)    -58.9650         0.021494   
    111. D(C   3,C   2,O   1,C   0)   -179.5772         0.021494   
    112. D(C   4,C   3,C   2,H  33)    -32.1397         0.012594   
    113. D(C   8,C   3,C   2,O   1)    -89.1316         0.012594   
    114. D(C   4,C   3,C   2,O   1)     87.6669         0.012594   
    115. D(C   8,C   3,C   2,H  34)     30.8028         0.012594   
    116. D(C   8,C   3,C   2,H  33)    151.0618         0.012594   
    117. D(C   4,C   3,C   2,H  34)   -152.3988         0.012594   
    118. D(H  32,C   4,C   3,C   2)      3.5765         0.027430   
    119. D(C   5,C   4,C   3,C   8)      1.2356         0.027430   
    120. D(C   5,C   4,C   3,C   2)   -175.6116         0.027430   
    121. D(H  32,C   4,C   3,C   8)   -179.5763         0.027430   
    122. D(H  31,C   5,C   4,H  32)      0.5532         0.028425   
    123. D(H  31,C   5,C   4,C   3)    179.7393         0.028425   
    124. D(C   6,C   5,C   4,C   3)      0.3944         0.028425   
    125. D(C   6,C   5,C   4,H  32)   -178.7917         0.028425   
    126. D(C  11,C   6,C   5,H  31)     -3.2559         0.027266   
    127. D(C  11,C   6,C   5,C   4)    176.0888         0.027266   
    128. D(C   7,C   6,C   5,H  31)    178.7579         0.027266   
    129. D(C   7,C   6,C   5,C   4)     -1.8975         0.027266   
    130. D(H  10,C   7,C   6,C  11)      3.2462         0.027103   
    131. D(C   8,C   7,C   6,C  11)   -176.2382         0.027103   
    132. D(C   8,C   7,C   6,C   5)      1.7926         0.027103   
    133. D(H  10,C   7,C   6,C   5)   -178.7230         0.027103   
    134. D(C   7,C   8,C   3,C   4)     -1.3412         0.027291   
    135. D(C   7,C   8,C   3,C   2)    175.5103         0.027291   
    136. D(H   9,C   8,C   3,C   2)     -4.1947         0.027291   
    137. D(H   9,C   8,C   7,H  10)      0.0387         0.028881   
    138. D(H   9,C   8,C   7,C   6)    179.5221         0.028881   
    139. D(C   3,C   8,C   7,H  10)   -179.6650         0.028881   
    140. D(C   3,C   8,C   7,C   6)     -0.1816         0.028881   
    141. D(H   9,C   8,C   3,C   4)    178.9539         0.027291   
    142. D(H  30,C  11,C   6,C   7)   -176.7990         0.011936   
    143. D(H  30,C  11,C   6,C   5)      5.2365         0.011936   
    144. D(H  29,C  11,C   6,C   7)    -58.4097         0.011936   
    145. D(N  12,C  11,C   6,C   7)     60.8324         0.011936   
    146. D(H  29,C  11,C   6,C   5)    123.6259         0.011936   
    147. D(N  12,C  11,C   6,C   5)   -117.1321         0.011936   
    148. D(C  14,N  12,C  11,H  30)    -45.3544         0.016460   
    149. D(C  14,N  12,C  11,H  29)   -161.1802         0.016460   
    150. D(C  14,N  12,C  11,C   6)     78.2951         0.016460   
    151. D(H  13,N  12,C  11,H  30)   -168.9400         0.016460   
    152. D(H  13,N  12,C  11,H  29)     75.2341         0.016460   
    153. D(H  13,N  12,C  11,C   6)    -45.2905         0.016460   
    154. D(H  28,C  14,N  12,H  13)    -62.9400         0.017823   
    155. D(H  28,C  14,N  12,C  11)    172.8130         0.017823   
    156. D(H  27,C  14,N  12,H  13)   -179.7519         0.017823   
    157. D(H  27,C  14,N  12,C  11)     56.0011         0.017823   
    158. D(C  15,C  14,N  12,H  13)     57.7123         0.017823   
    159. D(C  15,C  14,N  12,C  11)    -66.5347         0.017823   
    160. D(H  26,C  15,C  14,H  27)     66.3793         0.010522   
    161. D(H  26,C  15,C  14,N  12)   -171.0305         0.010522   
    162. D(H  25,C  15,C  14,H  28)   -170.3209         0.010522   
    163. D(H  25,C  15,C  14,H  27)    -52.4996         0.010522   
    164. D(H  25,C  15,C  14,N  12)     70.0906         0.010522   
    165. D(O  16,C  15,C  14,H  28)     69.3228         0.010522   
    166. D(O  16,C  15,C  14,H  27)   -172.8559         0.010522   
    167. D(H  26,C  15,C  14,H  28)    -51.4420         0.010522   
    168. D(O  16,C  15,C  14,N  12)    -50.2657         0.010522   
    169. D(C  17,O  16,C  15,H  26)    -66.6907         0.021451   
    170. D(C  17,O  16,C  15,H  25)     52.1540         0.021451   
    171. D(C  17,O  16,C  15,C  14)    173.0467         0.021451   
    172. D(H  24,C  17,O  16,C  15)    -56.6857         0.021953   
    173. D(H  23,C  17,O  16,C  15)     62.6292         0.021953   
    174. D(C  18,C  17,O  16,C  15)   -175.9476         0.021953   
    175. D(H  22,C  18,C  17,H  24)    -73.4905         0.011123   
    176. D(H  22,C  18,C  17,H  23)    167.9609         0.011123   
    177. D(H  22,C  18,C  17,O  16)     46.4755         0.011123   
    178. D(H  21,C  18,C  17,H  24)    168.3735         0.011123   
    179. D(H  21,C  18,C  17,H  23)     49.8249         0.011123   
    180. D(H  21,C  18,C  17,O  16)    -71.6604         0.011123   
    181. D(O  19,C  18,C  17,H  24)     49.6761         0.011123   
    182. D(O  19,C  18,C  17,H  23)    -68.8725         0.011123   
    183. D(O  19,C  18,C  17,O  16)    169.6422         0.011123   
    184. D(H  20,O  19,C  18,H  22)     63.1567         0.023172   
    185. D(H  20,O  19,C  18,H  21)   -178.7719         0.023172   
    186. D(H  20,O  19,C  18,C  17)    -58.0421         0.023172   
    -----------------------------------------------------------------

Number of atoms                         .... 38
Number of degrees of freedom            .... 186

         *************************************************************
         *                GEOMETRY OPTIMIZATION CYCLE   1            *
         *************************************************************
---------------------------------
CARTESIAN COORDINATES (ANGSTROEM)
---------------------------------
  C     -4.516400   -0.041100   -0.557000
  O     -3.130100    0.150700   -0.422500
  C     -2.788900    1.441400    0.062300
  C     -1.290500    1.520600    0.149900
  C     -0.539300    1.921600   -0.946400
  C      0.843200    1.907400   -0.892900
  C      1.505300    1.485100    0.252700
  C      0.748900    1.115000    1.358200
  C     -0.631700    1.130200    1.308500
  H     -1.206500    0.832300    2.173800
  H      1.248500    0.803700    2.264800
  C      3.011100    1.377400    0.307800
  N      3.521500    0.032000    0.528900
  H      2.994100   -0.415000    1.272500
  C      3.535700   -0.852700   -0.613700
  C      2.157500   -1.258200   -1.163800
  O      1.364200   -1.717100   -0.092400
  C      0.030200   -1.967500   -0.462600
  C     -0.758200   -2.359800    0.788900
  O     -2.138400   -2.402300    0.559100
  H     -2.426700   -1.528700    0.244200
  H     -0.465800   -3.359200    1.118800
  H     -0.506800   -1.644300    1.584100
  H     -0.018900   -2.768300   -1.215900
  H     -0.418800   -1.060000   -0.899700
  H      1.667200   -0.400800   -1.647100
  H      2.278700   -2.049900   -1.920000
  H      4.106500   -0.378600   -1.417400
  H      4.062500   -1.757300   -0.299200
  H      3.379300    1.990700    1.139600
  H      3.454000    1.758800   -0.616000
  H      1.414600    2.218800   -1.756900
  H     -1.039900    2.234300   -1.851600
  H     -3.180400    2.206700   -0.624700
  H     -3.246700    1.596700    1.051200
  H     -5.027000    0.076200    0.406200
  H     -4.655300   -1.057000   -0.920300
  H     -4.945100    0.669900   -1.273000

----------------------------
CARTESIAN COORDINATES (A.U.)
----------------------------
  NO LB      ZA    FRAG     MASS         X           Y           Z
   0 C     6.0000    0    12.011   -8.534759   -0.077668   -1.052577
   1 O     8.0000    0    15.999   -5.915032    0.284782   -0.798409
   2 C     6.0000    0    12.011   -5.270257    2.723851    0.117730
   3 C     6.0000    0    12.011   -2.438692    2.873518    0.283270
   4 C     6.0000    0    12.011   -1.019129    3.631298   -1.788437
   5 C     6.0000    0    12.011    1.593417    3.604464   -1.687336
   6 C     6.0000    0    12.011    2.844605    2.806432    0.477534
   7 C     6.0000    0    12.011    1.415216    2.107045    2.566626
   8 C     6.0000    0    12.011   -1.193740    2.135768    2.472707
   9 H     1.0000    0     1.008   -2.279955    1.572819    4.107887
  10 H     1.0000    0     1.008    2.359323    1.518773    4.279852
  11 C     6.0000    0    12.011    5.690154    2.602909    0.581658
  12 N     7.0000    0    14.007    6.654671    0.060471    0.999476
  13 H     1.0000    0     1.008    5.658029   -0.784236    2.404677
  14 C     6.0000    0    12.011    6.681505   -1.611369   -1.159725
  15 C     6.0000    0    12.011    4.077084   -2.377653   -2.199263
  16 O     8.0000    0    15.999    2.577964   -3.244849   -0.174611
  17 C     6.0000    0    12.011    0.057070   -3.718036   -0.874187
  18 C     6.0000    0    12.011   -1.432790   -4.459376    1.490805
  19 O     8.0000    0    15.999   -4.040990   -4.539689    1.056546
  20 H     1.0000    0     1.008   -4.585798   -2.888824    0.461471
  21 H     1.0000    0     1.008   -0.880234   -6.347968    2.114226
  22 H     1.0000    0     1.008   -0.957713   -3.107277    2.993515
  23 H     1.0000    0     1.008   -0.035716   -5.231329   -2.297718
  24 H     1.0000    0     1.008   -0.791417   -2.003110   -1.700187
  25 H     1.0000    0     1.008    3.150551   -0.757402   -3.112568
  26 H     1.0000    0     1.008    4.306119   -3.873750   -3.628274
  27 H     1.0000    0     1.008    7.760160   -0.715450   -2.678498
  28 H     1.0000    0     1.008    7.677012   -3.320816   -0.565406
  29 H     1.0000    0     1.008    6.385952    3.761878    2.153532
  30 H     1.0000    0     1.008    6.527114    3.323650   -1.164071
  31 H     1.0000    0     1.008    2.673207    4.192924   -3.320060
  32 H     1.0000    0     1.008   -1.965126    4.222215   -3.499017
  33 H     1.0000    0     1.008   -6.010085    4.170059   -1.180512
  34 H     1.0000    0     1.008   -6.135374    3.017326    1.986480
  35 H     1.0000    0     1.008   -9.499653    0.143997    0.767607
  36 H     1.0000    0     1.008   -8.797242   -1.997441   -1.739115
  37 H     1.0000    0     1.008   -9.344885    1.265928   -2.405621

--------------------------------
INTERNAL COORDINATES (ANGSTROEM)
--------------------------------
 C      0   0   0     0.000000000000     0.00000000     0.00000000
 O      1   0   0     1.405953477182     0.00000000     0.00000000
 C      2   1   0     1.420336217239   113.17173118     0.00000000
 C      3   2   1     1.503046559492   107.89411740   180.42280721
 C      4   3   2     1.388155657698   120.57529486    87.66688177
 C      5   4   3     1.383607653925   120.47845718   184.38836123
 C      6   5   4     1.388925145571   120.75255148     0.39441959
 C      7   6   5     1.389692491165   118.53175032   358.10253762
 C      8   7   6     1.381577898636   120.82122397     1.79262750
 H      9   8   7     1.080686605821   119.97824653   179.52211561
 H      8   7   6     1.080940058468   119.49364502   181.27701858
 C      7   6   5     1.510651826200   121.79823680   176.08877335
 N     12   7   6     1.455848388398   114.89043181   242.86791550
 H     13  12   7     1.015332812431   109.63144383   314.70946871
 C     13  12   7     1.445140301147   116.68688165    78.29507799
 C     15  13  12     1.538335301552   115.80437739   293.46530484
 O     16  15  13     1.409897889920   108.55104546   309.73431469
 C     17  16  15     1.406877464458   113.04715213   173.04670777
 C     18  17  16     1.530269943507   108.59898885   184.05241234
 O     19  18  17     1.399845109289   112.42665540   169.64218136
 H     20  19  18     0.972345545575   108.55566233   301.95792200
 H     19  18  17     1.092305877490   110.09895158   288.33959097
 H     19  18  17     1.098856337289   107.88080321    46.47552785
 H     18  17  16     1.100523666261   110.60530829    62.62923077
 H     18  17  16     1.102820774197   110.11348164   303.31426152
 H     16  15  13     1.099594352477   110.55525135    70.09062079
 H     16  15  13     1.101506590993   109.65614549   188.96946803
 H     15  13  12     1.093854259031   108.70613757    56.00113580
 H     15  13  12     1.093036893247   106.49259328   172.81302273
 H     12   7   6     1.097086765028   108.80435309   123.62587830
 H     12   7   6     1.093175562295   110.37431664     5.23654506
 H      6   5   4     1.081648704525   119.60406732   179.73931997
 H      5   4   3     1.080633467000   119.63324734     3.57649474
 H      3   2   1     1.100420528707   109.47690787   301.03501962
 H      3   2   1     1.100737089409   109.56936636    59.72601131
 H      1   2   3     1.096460619448   111.13326923   299.86969530
 H      1   2   3     1.087811063558   106.57402109   180.63054211
 H      1   2   3     1.096339678202   111.07366645    61.14688187

---------------------------
INTERNAL COORDINATES (A.U.)
---------------------------
 C      0   0   0     0.000000000000     0.00000000     0.00000000
 O      1   0   0     2.656867028908     0.00000000     0.00000000
 C      2   1   0     2.684046468671   113.17173118     0.00000000
 C      3   2   1     2.840346363972   107.89411740   180.42280721
 C      4   3   2     2.623234024303   120.57529486    87.66688177
 C      5   4   3     2.614639542716   120.47845718   184.38836123
 C      6   5   4     2.624688145646   120.75255148     0.39441959
 C      7   6   5     2.626138218668   118.53175032   358.10253762
 C      8   7   6     2.610803861101   120.82122397     1.79262750
 H      9   8   7     2.042201721598   119.97824653   179.52211561
 H      8   7   6     2.042680677689   119.49364502   181.27701858
 C      7   6   5     2.854718235225   121.79823680   176.08877335
 N     12   7   6     2.751154746582   114.89043181   242.86791550
 H     13  12   7     1.918700950280   109.63144383   314.70946871
 C     13  12   7     2.730919394261   116.68688165    78.29507799
 C     15  13  12     2.907032422076   115.80437739   293.46530484
 O     16  15  13     2.664320888742   108.55104546   309.73431469
 C     17  16  15     2.658613111811   113.04715213   173.04670777
 C     18  17  16     2.891791104199   108.59898885   184.05241234
 O     19  18  17     2.645323886465   112.42665540   169.64218136
 H     20  19  18     1.837466788675   108.55566233   301.95792200
 H     19  18  17     2.064158962929   110.09895158   288.33959097
 H     19  18  17     2.076537538000   107.88080321    46.47552785
 H     18  17  16     2.079688333132   110.60530829    62.62923077
 H     18  17  16     2.084029238031   110.11348164   303.31426152
 H     16  15  13     2.077932184589   110.55525135    70.09062079
 H     16  15  13     2.081545791685   109.65614549   188.96946803
 H     15  13  12     2.067084979992   108.70613757    56.00113580
 H     15  13  12     2.065540382510   106.49259328   172.81302273
 H     12   7   6     2.073193531053   108.80435309   123.62587830
 H     12   7   6     2.065802429034   110.37431664     5.23654506
 H      6   5   4     2.044019824662   119.60406732   179.73931997
 H      5   4   3     2.042101303779   119.63324734     3.57649474
 H      3   2   1     2.079493431401   109.47690787   301.03501962
 H      3   2   1     2.080091644432   109.56936636    59.72601131
 H      1   2   3     2.072010287386   111.13326923   299.86969530
 H      1   2   3     2.055664995575   106.57402109   180.63054211
 H      1   2   3     2.071781741553   111.07366645    61.14688187

---------------------
BASIS SET INFORMATION
---------------------
There are 4 groups of distinct atoms

 Group   1 Type C   : 7s4p1d contracted to 3s2p1d pattern {511/31/1}
 Group   2 Type O   : 7s4p1d contracted to 3s2p1d pattern {511/31/1}
 Group   3 Type H   : 4s1p contracted to 2s1p pattern {31/1}
 Group   4 Type N   : 7s4p1d contracted to 3s2p1d pattern {511/31/1}

Atom   0C    basis set group =>   1
Atom   1O    basis set group =>   2
Atom   2C    basis set group =>   1
Atom   3C    basis set group =>   1
Atom   4C    basis set group =>   1
Atom   5C    basis set group =>   1
Atom   6C    basis set group =>   1
Atom   7C    basis set group =>   1
Atom   8C    basis set group =>   1
Atom   9H    basis set group =>   3
Atom  10H    basis set group =>   3
Atom  11C    basis set group =>   1
Atom  12N    basis set group =>   4
Atom  13H    basis set group =>   3
Atom  14C    basis set group =>   1
Atom  15C    basis set group =>   1
Atom  16O    basis set group =>   2
Atom  17C    basis set group =>   1
Atom  18C    basis set group =>   1
Atom  19O    basis set group =>   2
Atom  20H    basis set group =>   3
Atom  21H    basis set group =>   3
Atom  22H    basis set group =>   3
Atom  23H    basis set group =>   3
Atom  24H    basis set group =>   3
Atom  25H    basis set group =>   3
Atom  26H    basis set group =>   3
Atom  27H    basis set group =>   3
Atom  28H    basis set group =>   3
Atom  29H    basis set group =>   3
Atom  30H    basis set group =>   3
Atom  31H    basis set group =>   3
Atom  32H    basis set group =>   3
Atom  33H    basis set group =>   3
Atom  34H    basis set group =>   3
Atom  35H    basis set group =>   3
Atom  36H    basis set group =>   3
Atom  37H    basis set group =>   3
------------------------------------------------------------------------------
                           ORCA GTO INTEGRAL CALCULATION
------------------------------------------------------------------------------

                         BASIS SET STATISTICS AND STARTUP INFO

 # of primitive gaussian shells          ...  309
 # of primitive gaussian functions       ...  555
 # of contracted shells                  ...  165
 # of contracted basis functions         ...  343
 Highest angular momentum                ...    2
 Maximum contraction depth               ...    5
 Integral package used                   ... LIBINT
 Integral threshhold            Thresh   ...  2.500e-11
 Primitive cut-off              TCut     ...  2.500e-12


------------------------------ INTEGRAL EVALUATION ----------------------------


 * One electron integrals 
 Pre-screening matrix                    ... done
 Shell pair data                         ... done (   0.004 sec)

-------------------------------------------------------------------------------
                                 ORCA SCF
-------------------------------------------------------------------------------

------------
SCF SETTINGS
------------
Hamiltonian:
 Density Functional     Method          .... DFT(GTOs)
 Exchange Functional    Exchange        .... WB97X-D3
 Correlation Functional Correlation     .... WB97X-D3
 Gradients option       PostSCFGGA      .... off
 Hybrid DFT is turned on
   Fraction HF Exchange ScalHFX         ....  0.195728
   Scaling of DF-GGA-X  ScalDFX         ....  0.000000
   Scaling of DF-GGA-C  ScalDFC         ....  1.000000
   Scaling of DF-LDA-C  ScalLDAC        ....  1.000000
   Perturbative correction              ....  0.000000
   Density functional embedding theory  .... OFF
 Long-range corrected/Screened/Range-Separated Hybrid DFT is turned on
   Amount of maximum screened exact exchange              ....  0.804272
   Range separation parameter mu (erf(mu*r12)/r12)        ....  0.250000


General Settings:
 Integral files         IntName         .... 065625034
 Hartree-Fock type      HFTyp           .... RHF
 Total Charge           Charge          ....    0
 Multiplicity           Mult            ....    1
 Number of Electrons    NEL             ....  130
 Basis Dimension        Dim             ....  343
 Nuclear Repulsion      ENuc            ....   1319.6953758722 Eh

Convergence Acceleration:
 DIIS                   CNVDIIS         .... on
   Start iteration      DIISMaxIt       ....    12
   Startup error        DIISStart       ....  0.200000
   # of expansion vecs  DIISMaxEq       ....     5
   Bias factor          DIISBfac        ....   1.050
   Max. coefficient     DIISMaxC        ....  10.000
 Newton-Raphson         CNVNR           .... off
 SOSCF                  CNVSOSCF        .... on
   Start iteration      SOSCFMaxIt      ....   150
   Startup grad/error   SOSCFStart      ....  0.003300
 Level Shifting         CNVShift        .... on
   Level shift para.    LevelShift      ....    0.2500
   Turn off err/grad.   ShiftErr        ....    0.0010
 Zerner damping         CNVZerner       .... off
 Static damping         CNVDamp         .... on
   Fraction old density DampFac         ....    0.7000
   Max. Damping (<1)    DampMax         ....    0.9800
   Min. Damping (>=0)   DampMin         ....    0.0000
   Turn off err/grad.   DampErr         ....    0.1000
 Fernandez-Rico         CNVRico         .... off

SCF Procedure:
 Maximum # iterations   MaxIter         ....   125
 SCF integral mode      SCFMode         .... Direct
   Integral package                     .... LIBINT
 Reset frequency        DirectResetFreq ....    20
 Integral Threshold     Thresh          ....  2.500e-11 Eh
 Primitive CutOff       TCut            ....  2.500e-12 Eh

Convergence Tolerance:
 Convergence Check Mode ConvCheckMode   .... Total+1el-Energy
 Convergence forced     ConvForced      .... 0
 Energy Change          TolE            ....  1.000e-08 Eh
 1-El. energy change                    ....  1.000e-05 Eh
 Orbital Gradient       TolG            ....  1.000e-05
 Orbital Rotation angle TolX            ....  1.000e-05
 DIIS Error             TolErr          ....  5.000e-07


Diagonalization of the overlap matrix:
Smallest eigenvalue                        ... 2.259e-04
Time for diagonalization                   ...    0.018 sec
Threshold for overlap eigenvalues          ... 1.000e-08
Number of eigenvalues below threshold      ... 0
Time for construction of square roots      ...    0.008 sec
Total time needed                          ...    0.027 sec

-------------------
DFT GRID GENERATION
-------------------

General Integration Accuracy     IntAcc      ...  4.340
Radial Grid Type                 RadialGrid  ... Gauss-Chebyshev
Angular Grid (max. acc.)         AngularGrid ... Lebedev-110
Angular grid pruning method      GridPruning ... 3 (G Style)
Weight generation scheme         WeightScheme... Becke
Basis function cutoff            BFCut       ...    1.0000e-11
Integration weight cutoff        WCut        ...    1.0000e-14
Grids for H and He will be reduced by one unit

# of grid points (after initial pruning)     ...  45052 (   0.0 sec)
# of grid points (after weights+screening)   ...  39901 (   0.3 sec)
nearest neighbour list constructed           ...    0.0 sec
Grid point re-assignment to atoms done       ...    0.0 sec
Grid point division into batches done        ...    0.0 sec
Reduced shell lists constructed in    0.4 sec

Total number of grid points                  ...    39901
Total number of batches                      ...      645
Average number of points per batch           ...       61
Average number of grid points per atom       ...     1050
Average number of shells per batch           ...    93.74 (56.81%)
Average number of basis functions per batch  ...   181.68 (52.97%)
Average number of large shells per batch     ...    64.29 (68.59%)
Average number of large basis fcns per batch ...   123.39 (67.91%)
Maximum spatial batch extension              ...  19.55, 25.60, 22.03 au
Average spatial batch extension              ...   3.11,  3.38,  3.37 au

Time for grid setup =    0.766 sec

------------------------------
INITIAL GUESS: MODEL POTENTIAL
------------------------------
Loading Hartree-Fock densities                     ... done
Calculating cut-offs                               ... done
Setting up the integral package                    ... done
Initializing the effective Hamiltonian             ... done
Starting the Coulomb interaction                   ... done (   0.7 sec)
Reading the grid                                   ... done
Mapping shells                                     ... done
Starting the XC term evaluation                    ... done (   0.6 sec)
  promolecular density results
     # of electrons  =    130.003406609
     EX              =   -103.761130144
     EC              =     -4.348596913
     EX+EC           =   -108.109727057
Transforming the Hamiltonian                       ... done (   0.0 sec)
Diagonalizing the Hamiltonian                      ... done (   0.0 sec)
Back transforming the eigenvectors                 ... done (   0.0 sec)
Now organizing SCF variables                       ... done
                      ------------------
                      INITIAL GUESS DONE (   2.2 sec)
                      ------------------
--------------
SCF ITERATIONS
--------------
ITER       Energy         Delta-E        Max-DP      RMS-DP      [F,P]     Damp
               ***  Starting incremental Fock matrix formation  ***
  0   -787.2726038601   0.000000000000 0.06556876  0.00137772  0.2215763 0.7000
  1   -787.4076039342  -0.135000074092 0.04051509  0.00102059  0.1147375 0.7000
                               ***Turning on DIIS***
  2   -787.4782643955  -0.070660461252 0.06851719  0.00207849  0.0484155 0.0000
  3   -787.5978577403  -0.119593344823 0.03273729  0.00061151  0.0530493 0.0000
  4   -787.6128671738  -0.015009433497 0.00526886  0.00012225  0.0069970 0.0000
                      *** Initiating the SOSCF procedure ***
                           *** Shutting down DIIS ***
                      *** Re-Reading the Fockian *** 
                      *** Removing any level shift *** 
ITER      Energy       Delta-E        Grad      Rot      Max-DP    RMS-DP
  5   -787.61324233  -0.0003751521  0.000377  0.000377  0.002853  0.000048
               *** Restarting incremental Fock matrix formation ***
  6   -787.61329760  -0.0000552718  0.000246  0.000683  0.001300  0.000030
  7   -787.61330562  -0.0000080173  0.000075  0.000396  0.000785  0.000018
  8   -787.61330682  -0.0000012052  0.000049  0.000062  0.000242  0.000006
  9   -787.61330721  -0.0000003933  0.000009  0.000016  0.000052  0.000001
 10   -787.61330722  -0.0000000104  0.000006  0.000012  0.000026  0.000001
                  ***Gradient check signals convergence***
              ***Rediagonalizing the Fockian in SOSCF/NRSCF***

               *****************************************************
               *                     SUCCESS                       *
               *           SCF CONVERGED AFTER  11 CYCLES          *
               *****************************************************

Setting up the final grid:

General Integration Accuracy     IntAcc      ...  4.670
Radial Grid Type                 RadialGrid  ... Gauss-Chebyshev
Angular Grid (max. acc.)         AngularGrid ... Lebedev-302
Angular grid pruning method      GridPruning ... 3 (G Style)
Weight generation scheme         WeightScheme... Becke
Basis function cutoff            BFCut       ...    1.0000e-11
Integration weight cutoff        WCut        ...    1.0000e-14
Grids for H and He will be reduced by one unit

# of grid points (after initial pruning)     ... 176878 (   0.1 sec)
# of grid points (after weights+screening)   ... 153016 (   1.2 sec)
nearest neighbour list constructed           ...    0.0 sec
Grid point re-assignment to atoms done       ...    0.0 sec
Grid point division into batches done        ...    0.5 sec
Reduced shell lists constructed in    1.8 sec

Total number of grid points                  ...   153016
Total number of batches                      ...     2408
Average number of points per batch           ...       63
Average number of grid points per atom       ...     4027
Average number of shells per batch           ...    85.52 (51.83%)
Average number of basis functions per batch  ...   163.88 (47.78%)
Average number of large shells per batch     ...    57.67 (67.43%)
Average number of large basis fcns per batch ...   109.71 (66.95%)
Maximum spatial batch extension              ...  19.15, 19.21, 20.44 au
Average spatial batch extension              ...   2.12,  2.18,  2.23 au

Final grid set up in    3.1 sec
Final integration                            ... done (   3.0 sec)
Change in XC energy                          ...     0.000792793
Integrated number of electrons               ...   129.999927556
Previous integrated no of electrons          ...   130.006453992

----------------
TOTAL SCF ENERGY
----------------

Total Energy       :         -787.61251444 Eh          -21432.02610 eV

Components:
Nuclear Repulsion  :         1319.69537587 Eh           35910.73684 eV
Electronic Energy  :        -2107.30789031 Eh          -57342.76295 eV
One Electron Energy:        -3692.30849593 Eh         -100472.82211 eV
Two Electron Energy:         1585.00060562 Eh           43130.05917 eV

Virial components:
Potential Energy   :        -1567.40555921 Eh          -42651.27361 eV
Kinetic Energy     :          779.79304477 Eh           21219.24751 eV
Virial Ratio       :            2.01002762


DFT components:
N(Alpha)           :       64.999963777995 electrons
N(Beta)            :       64.999963777995 electrons
N(Total)           :      129.999927555990 electrons
E(XC)              :      -76.214808006895 Eh       
DFET-embed. en.    :        0.000000000000 Eh       

---------------
SCF CONVERGENCE
---------------

  Last Energy change         ...   -4.3922e-09  Tolerance :   1.0000e-08
  Last MAX-Density change    ...    7.3569e-06  Tolerance :   1.0000e-07
  Last RMS-Density change    ...    1.6507e-07  Tolerance :   5.0000e-09
  Last Orbital Gradient      ...    1.6273e-06  Tolerance :   1.0000e-05
  Last Orbital Rotation      ...    6.0938e-06  Tolerance :   1.0000e-05

             **** THE GBW FILE WAS UPDATED (065625034.gbw) ****
             **** DENSITY FILE WAS UPDATED (065625034.scfp) ****
             **** ENERGY FILE WAS UPDATED (065625034.en.tmp) ****
             **** THE GBW FILE WAS UPDATED (065625034.gbw) ****
             **** DENSITY FILE WAS UPDATED (065625034.scfp) ****
----------------
ORBITAL ENERGIES
----------------

  NO   OCC          E(Eh)            E(eV) 
   0   2.0000     -19.264483      -524.2132 
   1   2.0000     -19.235026      -523.4117 
   2   2.0000     -19.205646      -522.6122 
   3   2.0000     -14.405282      -391.9877 
   4   2.0000     -10.350212      -281.6436 
   5   2.0000     -10.341303      -281.4012 
   6   2.0000     -10.321996      -280.8758 
   7   2.0000     -10.315800      -280.7072 
   8   2.0000     -10.312040      -280.6049 
   9   2.0000     -10.309629      -280.5393 
  10   2.0000     -10.303813      -280.3810 
  11   2.0000     -10.300649      -280.2949 
  12   2.0000     -10.297555      -280.2107 
  13   2.0000     -10.297226      -280.2018 
  14   2.0000     -10.297126      -280.1991 
  15   2.0000     -10.294676      -280.1324 
  16   2.0000     -10.293789      -280.1082 
  17   2.0000      -1.161506       -31.6062 
  18   2.0000      -1.137319       -30.9480 
  19   2.0000      -1.096203       -29.8292 
  20   2.0000      -1.016325       -27.6556 
  21   2.0000      -0.980856       -26.6904 
  22   2.0000      -0.902452       -24.5570 
  23   2.0000      -0.866927       -23.5903 
  24   2.0000      -0.861678       -23.4474 
  25   2.0000      -0.835676       -22.7399 
  26   2.0000      -0.803513       -21.8647 
  27   2.0000      -0.774667       -21.0798 
  28   2.0000      -0.745431       -20.2842 
  29   2.0000      -0.726399       -19.7663 
  30   2.0000      -0.711469       -19.3600 
  31   2.0000      -0.695378       -18.9222 
  32   2.0000      -0.685745       -18.6601 
  33   2.0000      -0.630331       -17.1522 
  34   2.0000      -0.610499       -16.6125 
  35   2.0000      -0.607011       -16.5176 
  36   2.0000      -0.602471       -16.3941 
  37   2.0000      -0.589205       -16.0331 
  38   2.0000      -0.587934       -15.9985 
  39   2.0000      -0.576868       -15.6974 
  40   2.0000      -0.566948       -15.4274 
  41   2.0000      -0.555538       -15.1170 
  42   2.0000      -0.550282       -14.9739 
  43   2.0000      -0.535824       -14.5805 
  44   2.0000      -0.527912       -14.3652 
  45   2.0000      -0.523910       -14.2563 
  46   2.0000      -0.508714       -13.8428 
  47   2.0000      -0.504533       -13.7290 
  48   2.0000      -0.495259       -13.4767 
  49   2.0000      -0.484792       -13.1919 
  50   2.0000      -0.476699       -12.9716 
  51   2.0000      -0.465325       -12.6621 
  52   2.0000      -0.459360       -12.4998 
  53   2.0000      -0.454627       -12.3710 
  54   2.0000      -0.442475       -12.0403 
  55   2.0000      -0.436655       -11.8820 
  56   2.0000      -0.433570       -11.7980 
  57   2.0000      -0.414187       -11.2706 
  58   2.0000      -0.392881       -10.6908 
  59   2.0000      -0.374089       -10.1795 
  60   2.0000      -0.357971        -9.7409 
  61   2.0000      -0.344095        -9.3633 
  62   2.0000      -0.339217        -9.2306 
  63   2.0000      -0.332446        -9.0463 
  64   2.0000      -0.305469        -8.3122 
  65   0.0000       0.054459         1.4819 
  66   0.0000       0.061448         1.6721 
  67   0.0000       0.134705         3.6655 
  68   0.0000       0.145276         3.9532 
  69   0.0000       0.152601         4.1525 
  70   0.0000       0.163845         4.4584 
  71   0.0000       0.173853         4.7308 
  72   0.0000       0.179863         4.8943 
  73   0.0000       0.185886         5.0582 
  74   0.0000       0.194575         5.2947 
  75   0.0000       0.199754         5.4356 
  76   0.0000       0.203582         5.5397 
  77   0.0000       0.206200         5.6110 
  78   0.0000       0.210815         5.7366 
  79   0.0000       0.217492         5.9183 
  80   0.0000       0.225959         6.1487 
  81   0.0000       0.234703         6.3866 
  82   0.0000       0.237676         6.4675 
  83   0.0000       0.241582         6.5738 
  84   0.0000       0.243881         6.6363 
  85   0.0000       0.254391         6.9223 
  86   0.0000       0.258825         7.0430 
  87   0.0000       0.262526         7.1437 
  88   0.0000       0.276161         7.5147 
  89   0.0000       0.289087         7.8665 
  90   0.0000       0.301916         8.2155 
  91   0.0000       0.309194         8.4136 
  92   0.0000       0.312369         8.5000 
  93   0.0000       0.316006         8.5990 
  94   0.0000       0.322111         8.7651 
  95   0.0000       0.334654         9.1064 
  96   0.0000       0.366663         9.9774 
  97   0.0000       0.371155        10.0996 
  98   0.0000       0.378460        10.2984 
  99   0.0000       0.390105        10.6153 
 100   0.0000       0.395102        10.7513 
 101   0.0000       0.406574        11.0634 
 102   0.0000       0.422333        11.4923 
 103   0.0000       0.428350        11.6560 
 104   0.0000       0.454108        12.3569 
 105   0.0000       0.492396        13.3988 
 106   0.0000       0.495594        13.4858 
 107   0.0000       0.508321        13.8321 
 108   0.0000       0.518318        14.1041 
 109   0.0000       0.530894        14.4464 
 110   0.0000       0.541381        14.7317 
 111   0.0000       0.545328        14.8391 
 112   0.0000       0.550557        14.9814 
 113   0.0000       0.555339        15.1115 
 114   0.0000       0.568831        15.4787 
 115   0.0000       0.571626        15.5547 
 116   0.0000       0.576673        15.6921 
 117   0.0000       0.587575        15.9887 
 118   0.0000       0.603952        16.4344 
 119   0.0000       0.610440        16.6109 
 120   0.0000       0.619246        16.8505 
 121   0.0000       0.634541        17.2667 
 122   0.0000       0.639950        17.4139 
 123   0.0000       0.641170        17.4471 
 124   0.0000       0.661254        17.9936 
 125   0.0000       0.667891        18.1742 
 126   0.0000       0.687013        18.6946 
 127   0.0000       0.698315        19.0021 
 128   0.0000       0.712479        19.3875 
 129   0.0000       0.718229        19.5440 
 130   0.0000       0.722135        19.6503 
 131   0.0000       0.731186        19.8966 
 132   0.0000       0.732169        19.9233 
 133   0.0000       0.735664        20.0184 
 134   0.0000       0.737314        20.0633 
 135   0.0000       0.742834        20.2135 
 136   0.0000       0.744736        20.2653 
 137   0.0000       0.749179        20.3862 
 138   0.0000       0.755698        20.5636 
 139   0.0000       0.757447        20.6112 
 140   0.0000       0.763533        20.7768 
 141   0.0000       0.765890        20.8409 
 142   0.0000       0.769444        20.9376 
 143   0.0000       0.773569        21.0499 
 144   0.0000       0.779118        21.2009 
 145   0.0000       0.786016        21.3886 
 146   0.0000       0.790665        21.5151 
 147   0.0000       0.793403        21.5896 
 148   0.0000       0.801399        21.8072 
 149   0.0000       0.804333        21.8870 
 150   0.0000       0.812598        22.1119 
 151   0.0000       0.822164        22.3722 
 152   0.0000       0.826187        22.4817 
 153   0.0000       0.830395        22.5962 
 154   0.0000       0.844105        22.9693 
 155   0.0000       0.853781        23.2326 
 156   0.0000       0.862009        23.4565 
 157   0.0000       0.863763        23.5042 
 158   0.0000       0.875478        23.8230 
 159   0.0000       0.889826        24.2134 
 160   0.0000       0.891444        24.2574 
 161   0.0000       0.895946        24.3799 
 162   0.0000       0.909465        24.7478 
 163   0.0000       0.926217        25.2036 
 164   0.0000       0.945491        25.7281 
 165   0.0000       0.958953        26.0944 
 166   0.0000       0.974387        26.5144 
 167   0.0000       0.981047        26.6956 
 168   0.0000       1.005298        27.3555 
 169   0.0000       1.035832        28.1864 
 170   0.0000       1.039689        28.2914 
 171   0.0000       1.045444        28.4480 
 172   0.0000       1.090252        29.6673 
 173   0.0000       1.104656        30.0592 
 174   0.0000       1.123111        30.5614 
 175   0.0000       1.145310        31.1655 
 176   0.0000       1.156464        31.4690 
 177   0.0000       1.175526        31.9877 
 178   0.0000       1.178337        32.0642 
 179   0.0000       1.193394        32.4739 
 180   0.0000       1.221073        33.2271 
 181   0.0000       1.234051        33.5802 
 182   0.0000       1.263894        34.3923 
 183   0.0000       1.281278        34.8653 
 184   0.0000       1.299528        35.3619 
 185   0.0000       1.309911        35.6445 
 186   0.0000       1.329936        36.1894 
 187   0.0000       1.344252        36.5790 
 188   0.0000       1.345955        36.6253 
 189   0.0000       1.358793        36.9746 
 190   0.0000       1.365213        37.1493 
 191   0.0000       1.366974        37.1972 
 192   0.0000       1.383719        37.6529 
 193   0.0000       1.390206        37.8294 
 194   0.0000       1.406434        38.2710 
 195   0.0000       1.414328        38.4858 
 196   0.0000       1.430672        38.9306 
 197   0.0000       1.447762        39.3956 
 198   0.0000       1.452114        39.5140 
 199   0.0000       1.484425        40.3932 
 200   0.0000       1.501064        40.8460 
 201   0.0000       1.520108        41.3642 
 202   0.0000       1.533613        41.7317 
 203   0.0000       1.564158        42.5629 
 204   0.0000       1.584689        43.1216 
 205   0.0000       1.605719        43.6938 
 206   0.0000       1.610851        43.8335 
 207   0.0000       1.614326        43.9280 
 208   0.0000       1.634700        44.4824 
 209   0.0000       1.649004        44.8717 
 210   0.0000       1.676863        45.6298 
 211   0.0000       1.690984        46.0140 
 212   0.0000       1.714965        46.6666 
 213   0.0000       1.718898        46.7736 
 214   0.0000       1.735678        47.2302 
 215   0.0000       1.754070        47.7307 
 216   0.0000       1.762989        47.9734 
 217   0.0000       1.776455        48.3398 
 218   0.0000       1.795614        48.8611 
 219   0.0000       1.802606        49.0514 
 220   0.0000       1.815055        49.3902 
 221   0.0000       1.825359        49.6705 
 222   0.0000       1.829615        49.7864 
 223   0.0000       1.836140        49.9639 
 224   0.0000       1.843199        50.1560 
 225   0.0000       1.857273        50.5390 
 226   0.0000       1.865777        50.7704 
 227   0.0000       1.867904        50.8283 
 228   0.0000       1.871769        50.9334 
 229   0.0000       1.883170        51.2437 
 230   0.0000       1.893662        51.5292 
 231   0.0000       1.900562        51.7169 
 232   0.0000       1.908683        51.9379 
 233   0.0000       1.916340        52.1463 
 234   0.0000       1.925128        52.3854 
 235   0.0000       1.926718        52.4287 
 236   0.0000       1.937580        52.7242 
 237   0.0000       1.941535        52.8319 
 238   0.0000       1.947375        52.9908 
 239   0.0000       1.953969        53.1702 
 240   0.0000       1.958126        53.2833 
 241   0.0000       1.966670        53.5158 
 242   0.0000       1.974571        53.7308 
 243   0.0000       1.976959        53.7958 
 244   0.0000       1.988251        54.1030 
 245   0.0000       1.999905        54.4202 
 246   0.0000       2.003931        54.5297 
 247   0.0000       2.009690        54.6864 
 248   0.0000       2.020832        54.9896 
 249   0.0000       2.025033        55.1040 
 250   0.0000       2.035913        55.4000 
 251   0.0000       2.046843        55.6974 
 252   0.0000       2.058376        56.0112 
 253   0.0000       2.061422        56.0941 
 254   0.0000       2.073792        56.4308 
 255   0.0000       2.075292        56.4716 
 256   0.0000       2.088702        56.8365 
 257   0.0000       2.103340        57.2348 
 258   0.0000       2.114417        57.5362 
 259   0.0000       2.136180        58.1284 
 260   0.0000       2.143244        58.3206 
 261   0.0000       2.171826        59.0984 
 262   0.0000       2.183740        59.4226 
 263   0.0000       2.185270        59.4642 
 264   0.0000       2.194261        59.7089 
 265   0.0000       2.205770        60.0221 
 266   0.0000       2.230806        60.7033 
 267   0.0000       2.236288        60.8525 
 268   0.0000       2.257638        61.4335 
 269   0.0000       2.274953        61.9046 
 270   0.0000       2.287684        62.2510 
 271   0.0000       2.297200        62.5100 
 272   0.0000       2.306396        62.7602 
 273   0.0000       2.315367        63.0044 
 274   0.0000       2.338862        63.6437 
 275   0.0000       2.373439        64.5846 
 276   0.0000       2.385285        64.9069 
 277   0.0000       2.406332        65.4796 
 278   0.0000       2.413785        65.6824 
 279   0.0000       2.427207        66.0477 
 280   0.0000       2.436390        66.2975 
 281   0.0000       2.448844        66.6364 
 282   0.0000       2.464393        67.0596 
 283   0.0000       2.481353        67.5211 
 284   0.0000       2.492238        67.8173 
 285   0.0000       2.505890        68.1887 
 286   0.0000       2.523611        68.6710 
 287   0.0000       2.537076        69.0373 
 288   0.0000       2.541805        69.1660 
 289   0.0000       2.556863        69.5758 
 290   0.0000       2.575297        70.0774 
 291   0.0000       2.580770        70.2263 
 292   0.0000       2.608629        70.9844 
 293   0.0000       2.619171        71.2713 
 294   0.0000       2.632981        71.6471 
 295   0.0000       2.644956        71.9729 
 296   0.0000       2.684798        73.0571 
 297   0.0000       2.743092        74.6433 
 298   0.0000       2.746962        74.7486 
 299   0.0000       2.762697        75.1768 
 300   0.0000       2.776577        75.5545 
 301   0.0000       2.804493        76.3141 
 302   0.0000       2.811472        76.5040 
 303   0.0000       2.830647        77.0258 
 304   0.0000       2.832781        77.0839 
 305   0.0000       2.854183        77.6663 
 306   0.0000       2.859329        77.8063 
 307   0.0000       2.871684        78.1425 
 308   0.0000       2.912959        79.2656 
 309   0.0000       2.928817        79.6972 
 310   0.0000       2.936951        79.9185 
 311   0.0000       2.953246        80.3619 
 312   0.0000       2.970432        80.8296 
 313   0.0000       2.981019        81.1177 
 314   0.0000       2.990821        81.3844 
 315   0.0000       3.005073        81.7722 
 316   0.0000       3.013225        81.9940 
 317   0.0000       3.027696        82.3878 
 318   0.0000       3.039768        82.7163 
 319   0.0000       3.063911        83.3732 
 320   0.0000       3.088296        84.0368 
 321   0.0000       3.101043        84.3837 
 322   0.0000       3.115941        84.7891 
 323   0.0000       3.135453        85.3200 
 324   0.0000       3.155975        85.8785 
 325   0.0000       3.166112        86.1543 
 326   0.0000       3.187737        86.7427 
 327   0.0000       3.196420        86.9790 
 328   0.0000       3.219861        87.6169 
 329   0.0000       3.226561        87.7992 
 330   0.0000       3.249205        88.4154 
 331   0.0000       3.261538        88.7510 
 332   0.0000       3.288850        89.4942 
 333   0.0000       3.313704        90.1705 
 334   0.0000       3.368172        91.6526 
 335   0.0000       3.385324        92.1193 
 336   0.0000       3.415455        92.9393 
 337   0.0000       3.502898        95.3187 
 338   0.0000       3.524005        95.8930 
 339   0.0000       3.591084        97.7184 
 340   0.0000       3.655107        99.4605 
 341   0.0000       3.732352       101.5625 
 342   0.0000       3.950945       107.5107 

                    ********************************
                    * MULLIKEN POPULATION ANALYSIS *
                    ********************************

-----------------------
MULLIKEN ATOMIC CHARGES
-----------------------
   0 C :    0.144184
   1 O :   -0.433785
   2 C :    0.278904
   3 C :   -0.098675
   4 C :   -0.004169
   5 C :   -0.030887
   6 C :   -0.078417
   7 C :   -0.012993
   8 C :   -0.019467
   9 H :    0.009504
  10 H :    0.003597
  11 C :    0.197443
  12 N :   -0.311871
  13 H :    0.115868
  14 C :    0.078155
  15 C :    0.183716
  16 O :   -0.431870
  17 C :    0.140455
  18 C :    0.195542
  19 O :   -0.372586
  20 H :    0.171807
  21 H :    0.019065
  22 H :   -0.001957
  23 H :    0.010490
  24 H :    0.007326
  25 H :   -0.008363
  26 H :    0.010352
  27 H :    0.018808
  28 H :    0.035971
  29 H :    0.036830
  30 H :    0.005805
  31 H :    0.001607
  32 H :   -0.000465
  33 H :    0.012046
  34 H :    0.013343
  35 H :    0.026427
  36 H :    0.061748
  37 H :    0.026511
Sum of atomic charges:   -0.0000000

--------------------------------
MULLIKEN REDUCED ORBITAL CHARGES
--------------------------------
  0 C s       :     3.013803  s :     3.013803
      pz      :     1.028446  p :     2.787207
      px      :     0.711183
      py      :     1.047578
      dz2     :     0.007446  d :     0.054806
      dxz     :     0.015927
      dyz     :     0.005307
      dx2y2   :     0.016554
      dxy     :     0.009573
  1 O s       :     3.780879  s :     3.780879
      pz      :     1.818063  p :     4.636953
      px      :     1.367675
      py      :     1.451215
      dz2     :     0.002175  d :     0.015952
      dxz     :     0.001978
      dyz     :     0.002583
      dx2y2   :     0.006670
      dxy     :     0.002546
  2 C s       :     2.940055  s :     2.940055
      pz      :     0.969796  p :     2.719355
      px      :     0.989943
      py      :     0.759616
      dz2     :     0.010211  d :     0.061685
      dxz     :     0.007295
      dyz     :     0.015525
      dx2y2   :     0.016782
      dxy     :     0.011872
  3 C s       :     3.035276  s :     3.035276
      pz      :     1.009692  p :     3.021062
      px      :     0.999095
      py      :     1.012274
      dz2     :     0.010789  d :     0.042337
      dxz     :     0.012623
      dyz     :     0.006633
      dx2y2   :     0.007275
      dxy     :     0.005018
  4 C s       :     3.194582  s :     3.194582
      pz      :     0.888014  p :     2.774012
      px      :     0.911687
      py      :     0.974310
      dz2     :     0.007586  d :     0.035575
      dxz     :     0.011596
      dyz     :     0.003794
      dx2y2   :     0.005600
      dxy     :     0.006999
  5 C s       :     3.184605  s :     3.184605
      pz      :     0.922006  p :     2.810798
      px      :     0.901149
      py      :     0.987644
      dz2     :     0.007620  d :     0.035483
      dxz     :     0.011779
      dyz     :     0.003973
      dx2y2   :     0.005595
      dxy     :     0.006517
  6 C s       :     3.039515  s :     3.039515
      pz      :     1.002413  p :     2.995772
      px      :     1.024667
      py      :     0.968692
      dz2     :     0.010374  d :     0.043130
      dxz     :     0.013347
      dyz     :     0.006341
      dx2y2   :     0.006877
      dxy     :     0.006191
  7 C s       :     3.195059  s :     3.195059
      pz      :     0.896045  p :     2.782831
      px      :     0.910795
      py      :     0.975990
      dz2     :     0.007751  d :     0.035103
      dxz     :     0.011582
      dyz     :     0.003654
      dx2y2   :     0.005651
      dxy     :     0.006464
  8 C s       :     3.198615  s :     3.198615
      pz      :     0.913304  p :     2.785008
      px      :     0.903998
      py      :     0.967706
      dz2     :     0.007637  d :     0.035844
      dxz     :     0.012063
      dyz     :     0.003980
      dx2y2   :     0.005444
      dxy     :     0.006721
  9 H s       :     0.967307  s :     0.967307
      pz      :     0.011107  p :     0.023189
      px      :     0.006646
      py      :     0.005436
 10 H s       :     0.972989  s :     0.972989
      pz      :     0.011891  p :     0.023414
      px      :     0.005885
      py      :     0.005638
 11 C s       :     2.946537  s :     2.946537
      pz      :     1.005340  p :     2.805319
      px      :     0.908512
      py      :     0.891467
      dz2     :     0.007365  d :     0.050701
      dxz     :     0.005934
      dyz     :     0.009628
      dx2y2   :     0.015044
      dxy     :     0.012731
 12 N s       :     3.433897  s :     3.433897
      pz      :     1.147257  p :     3.853954
      px      :     1.645769
      py      :     1.060928
      dz2     :     0.003838  d :     0.024019
      dxz     :     0.004337
      dyz     :     0.006861
      dx2y2   :     0.003358
      dxy     :     0.005625
 13 H s       :     0.839921  s :     0.839921
      pz      :     0.017109  p :     0.044211
      px      :     0.016349
      py      :     0.010754
 14 C s       :     2.994080  s :     2.994080
      pz      :     0.906204  p :     2.876742
      px      :     0.996511
      py      :     0.974026
      dz2     :     0.008110  d :     0.051023
      dxz     :     0.012877
      dyz     :     0.012899
      dx2y2   :     0.006737
      dxy     :     0.010401
 15 C s       :     2.976774  s :     2.976774
      pz      :     0.849813  p :     2.777175
      px      :     0.948595
      py      :     0.978767
      dz2     :     0.009660  d :     0.062336
      dxz     :     0.016005
      dyz     :     0.017189
      dx2y2   :     0.009424
      dxy     :     0.010058
 16 O s       :     3.780028  s :     3.780028
      pz      :     1.545590  p :     4.635772
      px      :     1.284663
      py      :     1.805519
      dz2     :     0.003493  d :     0.016070
      dxz     :     0.005179
      dyz     :     0.002489
      dx2y2   :     0.002844
      dxy     :     0.002065
 17 C s       :     3.009282  s :     3.009282
      pz      :     1.025459  p :     2.788380
      px      :     0.741913
      py      :     1.021008
      dz2     :     0.007792  d :     0.061884
      dxz     :     0.013362
      dyz     :     0.011757
      dx2y2   :     0.015447
      dxy     :     0.013525
 18 C s       :     2.981207  s :     2.981207
      pz      :     0.974899  p :     2.758096
      px      :     0.729440
      py      :     1.053757
      dz2     :     0.008278  d :     0.065155
      dxz     :     0.018193
      dyz     :     0.009283
      dx2y2   :     0.017668
      dxy     :     0.011732
 19 O s       :     3.722002  s :     3.722002
      pz      :     1.825885  p :     4.637524
      px      :     1.330354
      py      :     1.481286
      dz2     :     0.001748  d :     0.013059
      dxz     :     0.001711
      dyz     :     0.001586
      dx2y2   :     0.005648
      dxy     :     0.002366
 20 H s       :     0.757033  s :     0.757033
      pz      :     0.020851  p :     0.071160
      px      :     0.015735
      py      :     0.034574
 21 H s       :     0.959573  s :     0.959573
      pz      :     0.005224  p :     0.021362
      px      :     0.002799
      py      :     0.013338
 22 H s       :     0.980516  s :     0.980516
      pz      :     0.009196  p :     0.021441
      px      :     0.002980
      py      :     0.009265
 23 H s       :     0.968186  s :     0.968186
      pz      :     0.008674  p :     0.021323
      px      :     0.002243
      py      :     0.010406
 24 H s       :     0.970593  s :     0.970593
      pz      :     0.005539  p :     0.022081
      px      :     0.004310
      py      :     0.012232
 25 H s       :     0.986487  s :     0.986487
      pz      :     0.005264  p :     0.021876
      px      :     0.005185
      py      :     0.011426
 26 H s       :     0.968536  s :     0.968536
      pz      :     0.008157  p :     0.021112
      px      :     0.003421
      py      :     0.009533
 27 H s       :     0.959842  s :     0.959842
      pz      :     0.008631  p :     0.021350
      px      :     0.007220
      py      :     0.005499
 28 H s       :     0.942855  s :     0.942855
      pz      :     0.004108  p :     0.021174
      px      :     0.006522
      py      :     0.010544
 29 H s       :     0.941835  s :     0.941835
      pz      :     0.009981  p :     0.021336
      px      :     0.005334
      py      :     0.006021
 30 H s       :     0.972383  s :     0.972383
      pz      :     0.011841  p :     0.021812
      px      :     0.005719
      py      :     0.004252
 31 H s       :     0.975316  s :     0.975316
      pz      :     0.010888  p :     0.023077
      px      :     0.006638
      py      :     0.005551
 32 H s       :     0.977079  s :     0.977079
      pz      :     0.011948  p :     0.023386
      px      :     0.005901
      py      :     0.005538
 33 H s       :     0.966805  s :     0.966805
      pz      :     0.008135  p :     0.021150
      px      :     0.004875
      py      :     0.008139
 34 H s       :     0.965572  s :     0.965572
      pz      :     0.012851  p :     0.021086
      px      :     0.005223
      py      :     0.003012
 35 H s       :     0.951283  s :     0.951283
      pz      :     0.012453  p :     0.022290
      px      :     0.004821
      py      :     0.005016
 36 H s       :     0.916159  s :     0.916159
      pz      :     0.006089  p :     0.022093
      px      :     0.002153
      py      :     0.013852
 37 H s       :     0.951091  s :     0.951091
      pz      :     0.009429  p :     0.022398
      px      :     0.004272
      py      :     0.008697


                     *******************************
                     * LOEWDIN POPULATION ANALYSIS *
                     *******************************

----------------------
LOEWDIN ATOMIC CHARGES
----------------------
   0 C :    0.066305
   1 O :   -0.170636
   2 C :    0.089654
   3 C :   -0.056166
   4 C :   -0.019003
   5 C :   -0.034106
   6 C :   -0.035270
   7 C :   -0.020182
   8 C :   -0.016838
   9 H :    0.030399
  10 H :    0.027397
  11 C :    0.030483
  12 N :   -0.107184
  13 H :    0.054162
  14 C :    0.008898
  15 C :    0.054001
  16 O :   -0.181192
  17 C :    0.053730
  18 C :    0.061007
  19 O :   -0.156755
  20 H :    0.047434
  21 H :    0.016496
  22 H :   -0.000628
  23 H :    0.005506
  24 H :    0.005288
  25 H :    0.001832
  26 H :    0.006755
  27 H :    0.022422
  28 H :    0.025554
  29 H :    0.031139
  30 H :    0.022311
  31 H :    0.026913
  32 H :    0.029163
  33 H :    0.014367
  34 H :    0.013291
  35 H :    0.011740
  36 H :    0.029992
  37 H :    0.011721

-------------------------------
LOEWDIN REDUCED ORBITAL CHARGES
-------------------------------
  0 C s       :     2.841435  s :     2.841435
      pz      :     1.074663  p :     2.965376
      px      :     0.811394
      py      :     1.079319
      dz2     :     0.016960  d :     0.126883
      dxz     :     0.037612
      dyz     :     0.013466
      dx2y2   :     0.038734
      dxy     :     0.020111
  1 O s       :     3.461162  s :     3.461162
      pz      :     1.807042  p :     4.680688
      px      :     1.400901
      py      :     1.472744
      dz2     :     0.003559  d :     0.028787
      dxz     :     0.003320
      dyz     :     0.004236
      dx2y2   :     0.012390
      dxy     :     0.005281
  2 C s       :     2.838515  s :     2.838515
      pz      :     1.039190  p :     2.928611
      px      :     1.030867
      py      :     0.858554
      dz2     :     0.024852  d :     0.143220
      dxz     :     0.016955
      dyz     :     0.036300
      dx2y2   :     0.040983
      dxy     :     0.024130
  3 C s       :     2.848054  s :     2.848054
      pz      :     1.076646  p :     3.100337
      px      :     1.032783
      py      :     0.990908
      dz2     :     0.029215  d :     0.107775
      dxz     :     0.034413
      dyz     :     0.015300
      dx2y2   :     0.017903
      dxy     :     0.010944
  4 C s       :     2.850833  s :     2.850833
      pz      :     1.035344  p :     3.073948
      px      :     1.062441
      py      :     0.976163
      dz2     :     0.021024  d :     0.094222
      dxz     :     0.033148
      dyz     :     0.008420
      dx2y2   :     0.015833
      dxy     :     0.015797
  5 C s       :     2.851051  s :     2.851051
      pz      :     1.039622  p :     3.089006
      px      :     1.060699
      py      :     0.988685
      dz2     :     0.020965  d :     0.094049
      dxz     :     0.033726
      dyz     :     0.008858
      dx2y2   :     0.015802
      dxy     :     0.014698
  6 C s       :     2.856413  s :     2.856413
      pz      :     1.069383  p :     3.070278
      px      :     1.051933
      py      :     0.948962
      dz2     :     0.028173  d :     0.108580
      dxz     :     0.035633
      dyz     :     0.014840
      dx2y2   :     0.016521
      dxy     :     0.013413
  7 C s       :     2.849519  s :     2.849519
      pz      :     1.039411  p :     3.077123
      px      :     1.061199
      py      :     0.976514
      dz2     :     0.021411  d :     0.093539
      dxz     :     0.033473
      dyz     :     0.008093
      dx2y2   :     0.016075
      dxy     :     0.014488
  8 C s       :     2.850157  s :     2.850157
      pz      :     1.039910  p :     3.072267
      px      :     1.062000
      py      :     0.970357
      dz2     :     0.021013  d :     0.094414
      dxz     :     0.034384
      dyz     :     0.008862
      dx2y2   :     0.015299
      dxy     :     0.014857
  9 H s       :     0.900505  s :     0.900505
      pz      :     0.032143  p :     0.069096
      px      :     0.020200
      py      :     0.016752
 10 H s       :     0.903523  s :     0.903523
      pz      :     0.033940  p :     0.069079
      px      :     0.018174
      py      :     0.016965
 11 C s       :     2.823439  s :     2.823439
      pz      :     1.067955  p :     3.024765
      px      :     1.009348
      py      :     0.947462
      dz2     :     0.019423  d :     0.121313
      dxz     :     0.014370
      dyz     :     0.021987
      dx2y2   :     0.037315
      dxy     :     0.028219
 12 N s       :     3.111928  s :     3.111928
      pz      :     1.199948  p :     3.942465
      px      :     1.620729
      py      :     1.121788
      dz2     :     0.009209  d :     0.052792
      dxz     :     0.008393
      dyz     :     0.017196
      dx2y2   :     0.007239
      dxy     :     0.010756
 13 H s       :     0.819590  s :     0.819590
      pz      :     0.047445  p :     0.126248
      px      :     0.050190
      py      :     0.028614
 14 C s       :     2.833128  s :     2.833128
      pz      :     0.981011  p :     3.036734
      px      :     1.037520
      py      :     1.018203
      dz2     :     0.017588  d :     0.121240
      dxz     :     0.030970
      dyz     :     0.031482
      dx2y2   :     0.016470
      dxy     :     0.024730
 15 C s       :     2.849673  s :     2.849673
      pz      :     0.925635  p :     2.952989
      px      :     0.987139
      py      :     1.040215
      dz2     :     0.021022  d :     0.143336
      dxz     :     0.036631
      dyz     :     0.042150
      dx2y2   :     0.021894
      dxy     :     0.021640
 16 O s       :     3.454000  s :     3.454000
      pz      :     1.580361  p :     4.698045
      px      :     1.319992
      py      :     1.797692
      dz2     :     0.005843  d :     0.029147
      dxz     :     0.009708
      dyz     :     0.003685
      dx2y2   :     0.005834
      dxy     :     0.004076
 17 C s       :     2.851310  s :     2.851310
      pz      :     1.054504  p :     2.951861
      px      :     0.833150
      py      :     1.064207
[...]
      px      :     0.007126
      py      :     0.005620
 32 H s       :     0.973017  s :     0.973017
      pz      :     0.012219  p :     0.022908
      px      :     0.005017
      py      :     0.005672
 33 H s       :     0.968013  s :     0.968013
      pz      :     0.013944  p :     0.021068
      px      :     0.004026
      py      :     0.003099
 34 H s       :     0.949657  s :     0.949657
      pz      :     0.007812  p :     0.021182
      px      :     0.005397
      py      :     0.007973
 35 H s       :     0.950563  s :     0.950563
      pz      :     0.009181  p :     0.022120
      px      :     0.004433
      py      :     0.008507
 36 H s       :     0.913097  s :     0.913097
      pz      :     0.005763  p :     0.022042
      px      :     0.002243
      py      :     0.014035
 37 H s       :     0.951343  s :     0.951343
      pz      :     0.012942  p :     0.022116
      px      :     0.004081
      py      :     0.005094


                     *******************************
                     * LOEWDIN POPULATION ANALYSIS *
                     *******************************

----------------------
LOEWDIN ATOMIC CHARGES
----------------------
   0 C :    0.065311
   1 O :   -0.158058
   2 C :    0.086096
   3 C :   -0.057236
   4 C :   -0.030652
   5 C :   -0.036299
   6 C :   -0.040167
   7 C :   -0.021990
   8 C :   -0.018647
   9 H :    0.033544
  10 H :    0.028486
  11 C :    0.026996
  12 N :   -0.108528
  13 H :    0.056762
  14 C :    0.005622
  15 C :    0.048716
  16 O :   -0.175638
  17 C :    0.049139
  18 C :    0.056642
  19 O :   -0.152715
  20 H :    0.046129
  21 H :    0.016934
  22 H :    0.001170
  23 H :    0.005870
  24 H :    0.003311
  25 H :    0.002837
  26 H :    0.008150
  27 H :    0.023866
  28 H :    0.027775
  29 H :    0.033046
  30 H :    0.024309
  31 H :    0.029669
  32 H :    0.029703
  33 H :    0.013456
  34 H :    0.019314
  35 H :    0.012548
  36 H :    0.032363
  37 H :    0.012165

-------------------------------
LOEWDIN REDUCED ORBITAL CHARGES
-------------------------------
  0 C s       :     2.846484  s :     2.846484
      pz      :     1.075589  p :     2.961605
      px      :     0.803513
      py      :     1.082504
      dz2     :     0.019412  d :     0.126600
      dxz     :     0.036002
      dyz     :     0.011321
      dx2y2   :     0.038300
      dxy     :     0.021566
  1 O s       :     3.446828  s :     3.446828
      pz      :     1.828596  p :     4.681922
      px      :     1.374354
      py      :     1.478972
      dz2     :     0.003678  d :     0.029308
      dxz     :     0.003420
      dyz     :     0.003636
      dx2y2   :     0.012524
      dxy     :     0.006050
  2 C s       :     2.837464  s :     2.837464
      pz      :     1.050922  p :     2.930701
      px      :     1.020227
      py      :     0.859553
      dz2     :     0.028703  d :     0.145739
      dxz     :     0.013316
      dyz     :     0.034723
      dx2y2   :     0.039596
      dxy     :     0.029401
  3 C s       :     2.854239  s :     2.854239
      pz      :     1.069840  p :     3.097367
      px      :     1.031815
      py      :     0.995713
      dz2     :     0.027423  d :     0.105629
      dxz     :     0.032937
      dyz     :     0.015068
      dx2y2   :     0.018498
      dxy     :     0.011703
  4 C s       :     2.858227  s :     2.858227
      pz      :     1.030520  p :     3.081278
      px      :     1.061077
      py      :     0.989681
      dz2     :     0.019531  d :     0.091147
      dxz     :     0.030362
      dyz     :     0.008283
      dx2y2   :     0.016506
      dxy     :     0.016466
  5 C s       :     2.859009  s :     2.859009
      pz      :     1.037601  p :     3.086233
      px      :     1.055194
      py      :     0.993438
      dz2     :     0.019273  d :     0.091057
      dxz     :     0.031990
      dyz     :     0.009561
      dx2y2   :     0.015457
      dxy     :     0.014777
  6 C s       :     2.863628  s :     2.863628
      pz      :     1.060066  p :     3.071219
      px      :     1.051146
      py      :     0.960008
      dz2     :     0.025727  d :     0.105320
      dxz     :     0.034027
      dyz     :     0.014559
      dx2y2   :     0.016998
      dxy     :     0.014009
  7 C s       :     2.856855  s :     2.856855
      pz      :     1.032359  p :     3.074011
      px      :     1.062094
      py      :     0.979558
      dz2     :     0.019637  d :     0.091124
      dxz     :     0.030574
      dyz     :     0.008271
      dx2y2   :     0.016854
      dxy     :     0.015789
  8 C s       :     2.856367  s :     2.856367
      pz      :     1.036003  p :     3.071164
      px      :     1.059451
      py      :     0.975711
      dz2     :     0.019518  d :     0.091117
      dxz     :     0.032196
      dyz     :     0.009530
      dx2y2   :     0.014969
      dxy     :     0.014904
  9 H s       :     0.898484  s :     0.898484
      pz      :     0.028157  p :     0.067971
      px      :     0.022485
      py      :     0.017329
 10 H s       :     0.904617  s :     0.904617
      pz      :     0.033777  p :     0.066897
      px      :     0.015647
      py      :     0.017473
 11 C s       :     2.826867  s :     2.826867
      pz      :     1.069270  p :     3.024983
      px      :     1.005731
      py      :     0.949982
      dz2     :     0.017127  d :     0.121155
      dxz     :     0.015122
      dyz     :     0.023385
      dx2y2   :     0.037972
      dxy     :     0.027548
 12 N s       :     3.102795  s :     3.102795
      pz      :     1.210270  p :     3.953622
      px      :     1.609825
      py      :     1.133527
      dz2     :     0.008686  d :     0.052111
      dxz     :     0.007818
      dyz     :     0.017817
      dx2y2   :     0.007002
      dxy     :     0.010788
 13 H s       :     0.817704  s :     0.817704
      pz      :     0.048256  p :     0.125534
      px      :     0.048960
      py      :     0.028318
 14 C s       :     2.835348  s :     2.835348
      pz      :     0.987380  p :     3.037499
      px      :     1.038019
      py      :     1.012100
      dz2     :     0.013776  d :     0.121531
      dxz     :     0.035984
      dyz     :     0.033283
      dx2y2   :     0.015005
      dxy     :     0.023484
 15 C s       :     2.848748  s :     2.848748
      pz      :     0.958077  p :     2.954987
      px      :     0.964999
      py      :     1.031911
      dz2     :     0.017033  d :     0.147550
      dxz     :     0.042043
      dyz     :     0.039848
      dx2y2   :     0.022657
      dxy     :     0.025969
 16 O s       :     3.446635  s :     3.446635
      pz      :     1.616390  p :     4.699143
      px      :     1.286710
      py      :     1.796042
      dz2     :     0.004655  d :     0.029861
      dxz     :     0.011021
      dyz     :     0.003634
      dx2y2   :     0.005968
      dxy     :     0.004582
 17 C s       :     2.852485  s :     2.852485
      pz      :     1.044113  p :     2.952768
      px      :     0.840063
      py      :     1.068593
      dz2     :     0.019086  d :     0.145608
      dxz     :     0.035870
      dyz     :     0.026757
      dx2y2   :     0.035409
      dxy     :     0.028487
 18 C s       :     2.839966  s :     2.839966
      pz      :     1.030599  p :     2.954729
      px      :     0.847729
      py      :     1.076401
      dz2     :     0.021636  d :     0.148663
      dxz     :     0.045066
      dyz     :     0.020179
      dx2y2   :     0.039300
      dxy     :     0.022482
 19 O s       :     3.430180  s :     3.430180
      pz      :     1.816971  p :     4.698575
      px      :     1.391134
      py      :     1.490470
      dz2     :     0.003630  d :     0.023960
      dxz     :     0.003919
      dyz     :     0.000493
      dx2y2   :     0.011932
      dxy     :     0.003986
 20 H s       :     0.753639  s :     0.753639
      pz      :     0.049997  p :     0.200232
      px      :     0.041752
      py      :     0.108483
 21 H s       :     0.920799  s :     0.920799
      pz      :     0.013685  p :     0.062267
      px      :     0.009763
      py      :     0.038818
 22 H s       :     0.934433  s :     0.934433
      pz      :     0.033308  p :     0.064397
      px      :     0.010274
      py      :     0.020815
 23 H s       :     0.930100  s :     0.930100
      pz      :     0.031762  p :     0.064030
      px      :     0.008575
      py      :     0.023693
 24 H s       :     0.931271  s :     0.931271
      pz      :     0.015475  p :     0.065417
      px      :     0.012502
      py      :     0.037441
 25 H s       :     0.931000  s :     0.931000
      pz      :     0.018138  p :     0.066163
      px      :     0.015915
      py      :     0.032110
 26 H s       :     0.928061  s :     0.928061
      pz      :     0.026195  p :     0.063789
      px      :     0.013005
      py      :     0.024589
 27 H s       :     0.913595  s :     0.913595
      pz      :     0.023039  p :     0.062539
      px      :     0.024343
      py      :     0.015156
 28 H s       :     0.908884  s :     0.908884
      pz      :     0.014231  p :     0.063341
      px      :     0.018961
      py      :     0.030148
 29 H s       :     0.903717  s :     0.903717
      pz      :     0.028093  p :     0.063237
      px      :     0.014257
      py      :     0.020887
 30 H s       :     0.913039  s :     0.913039
      pz      :     0.030974  p :     0.062652
      px      :     0.017412
      py      :     0.014266
 31 H s       :     0.903464  s :     0.903464
      pz      :     0.028550  p :     0.066866
      px      :     0.021223
      py      :     0.017093
 32 H s       :     0.903188  s :     0.903188
      pz      :     0.034273  p :     0.067109
      px      :     0.015672
      py      :     0.017165
 33 H s       :     0.922999  s :     0.922999
      pz      :     0.040187  p :     0.063545
      px      :     0.013175
      py      :     0.010183
 34 H s       :     0.916637  s :     0.916637
      pz      :     0.021428  p :     0.064048
      px      :     0.017411
      py      :     0.025208
 35 H s       :     0.923996  s :     0.923996
      pz      :     0.025100  p :     0.063455
      px      :     0.014472
      py      :     0.023884
 36 H s       :     0.904130  s :     0.904130
      pz      :     0.014727  p :     0.063507
      px      :     0.008519
      py      :     0.040261
 37 H s       :     0.924279  s :     0.924279
      pz      :     0.036896  p :     0.063555
      px      :     0.013713
      py      :     0.012947


                      *****************************
                      * MAYER POPULATION ANALYSIS *
                      *****************************

  NA   - Mulliken gross atomic population
  ZA   - Total nuclear charge
  QA   - Mulliken gross atomic charge
  VA   - Mayer's total valence
  BVA  - Mayer's bonded valence
  FA   - Mayer's free valence

  ATOM       NA         ZA         QA         VA         BVA        FA
  0 C      5.8624     6.0000     0.1376     3.9098     3.9098     0.0000
  1 O      8.4307     8.0000    -0.4307     2.0809     2.0809     0.0000
  2 C      5.7090     6.0000     0.2910     3.8729     3.8729     0.0000
  3 C      6.1233     6.0000    -0.1233     3.9217     3.9217     0.0000
  4 C      6.0201     6.0000    -0.0201     3.9008     3.9008    -0.0000
  5 C      6.0344     6.0000    -0.0344     3.9086     3.9086    -0.0000
  6 C      6.0843     6.0000    -0.0843     3.8689     3.8689     0.0000
  7 C      6.0181     6.0000    -0.0181     3.9097     3.9097    -0.0000
  8 C      6.0220     6.0000    -0.0220     3.9081     3.9081     0.0000
  9 H      0.9792     1.0000     0.0208     0.9994     0.9994    -0.0000
 10 H      0.9910     1.0000     0.0090     0.9931     0.9931     0.0000
 11 C      5.8155     6.0000     0.1845     3.9704     3.9704    -0.0000
 12 N      7.3095     7.0000    -0.3095     3.1235     3.1235    -0.0000
 13 H      0.8820     1.0000     0.1180     1.0068     1.0068    -0.0000
 14 C      5.9325     6.0000     0.0675     4.0640     4.0640    -0.0000
 15 C      5.8204     6.0000     0.1796     3.9361     3.9361    -0.0000
 16 O      8.4225     8.0000    -0.4225     2.0371     2.0371     0.0000
 17 C      5.8516     6.0000     0.1484     3.9727     3.9727    -0.0000
 18 C      5.8147     6.0000     0.1853     3.9982     3.9982    -0.0000
 19 O      8.3682     8.0000    -0.3682     2.0613     2.0613    -0.0000
 20 H      0.8264     1.0000     0.1736     1.0701     1.0701    -0.0000
 21 H      0.9787     1.0000     0.0213     0.9824     0.9824     0.0000
 22 H      1.0004     1.0000    -0.0004     0.9926     0.9926    -0.0000
 23 H      0.9895     1.0000     0.0105     0.9829     0.9829    -0.0000
 24 H      1.0028     1.0000    -0.0028     1.0009     1.0009    -0.0000
 25 H      1.0050     1.0000    -0.0050     0.9981     0.9981     0.0000
 26 H      0.9882     1.0000     0.0118     0.9805     0.9805    -0.0000
 27 H      0.9779     1.0000     0.0221     0.9859     0.9859    -0.0000
 28 H      0.9631     1.0000     0.0369     0.9882     0.9882     0.0000
 29 H      0.9577     1.0000     0.0423     0.9837     0.9837    -0.0000
 30 H      0.9908     1.0000     0.0092     0.9996     0.9996     0.0000
 31 H      0.9911     1.0000     0.0089     0.9922     0.9922    -0.0000
 32 H      0.9959     1.0000     0.0041     0.9924     0.9924     0.0000
 33 H      0.9891     1.0000     0.0109     0.9945     0.9945    -0.0000
 34 H      0.9708     1.0000     0.0292     0.9858     0.9858    -0.0000
 35 H      0.9727     1.0000     0.0273     0.9886     0.9886    -0.0000
 36 H      0.9351     1.0000     0.0649     0.9899     0.9899    -0.0000
 37 H      0.9735     1.0000     0.0265     0.9864     0.9864    -0.0000

  Mayer bond orders larger than 0.100000
B(  0-C ,  1-O ) :   0.9513 B(  0-C , 35-H ) :   0.9717 B(  0-C , 36-H ) :   0.9808 
B(  0-C , 37-H ) :   0.9701 B(  1-O ,  2-C ) :   0.9704 B(  2-C ,  3-C ) :   1.0203 
B(  2-C , 33-H ) :   0.9424 B(  2-C , 34-H ) :   0.9338 B(  3-C ,  4-C ) :   1.4177 
B(  3-C ,  8-C ) :   1.3740 B(  4-C ,  5-C ) :   1.3809 B(  4-C , 32-H ) :   0.9883 
B(  5-C ,  6-C ) :   1.4221 B(  5-C , 31-H ) :   0.9833 B(  6-C ,  7-C ) :   1.3688 
B(  6-C , 11-C ) :   0.9858 B(  7-C ,  8-C ) :   1.4223 B(  7-C , 10-H ) :   0.9879 
B(  8-C ,  9-H ) :   0.9929 B( 11-C , 12-N ) :   1.0833 B( 11-C , 29-H ) :   0.9459 
B( 11-C , 30-H ) :   0.9459 B( 12-N , 13-H ) :   0.9516 B( 12-N , 14-C ) :   1.0644 
B( 14-C , 15-C ) :   1.0449 B( 14-C , 27-H ) :   0.9506 B( 14-C , 28-H ) :   0.9569 
B( 15-C , 16-O ) :   0.9808 B( 15-C , 25-H ) :   0.9279 B( 15-C , 26-H ) :   0.9402 
B( 16-O , 17-C ) :   0.9597 B( 17-C , 18-C ) :   1.0466 B( 17-C , 23-H ) :   0.9395 
B( 17-C , 24-H ) :   0.9462 B( 18-C , 19-O ) :   1.0288 B( 18-C , 21-H ) :   0.9493 
B( 18-C , 22-H ) :   0.9499 B( 19-O , 20-H ) :   0.9424 

-------
TIMINGS
-------

Total SCF time: 0 days 0 hours 3 min 52 sec 

Total time                  ....     232.248 sec
Sum of individual times     ....     231.946 sec  ( 99.9%)

Fock matrix formation       ....     227.778 sec  ( 98.1%)
  XC integration            ....       7.611 sec  (  3.3% of F)
    Basis function eval.    ....       2.293 sec  ( 30.1% of XC)
    Density eval.           ....       1.631 sec  ( 21.4% of XC)
    XC-Functional eval.     ....       1.528 sec  ( 20.1% of XC)
    XC-Potential eval.      ....       1.957 sec  ( 25.7% of XC)
Diagonalization             ....       0.020 sec  (  0.0%)
Density matrix formation    ....       0.018 sec  (  0.0%)
Population analysis         ....       0.017 sec  (  0.0%)
Initial guess               ....       0.020 sec  (  0.0%)
Orbital Transformation      ....       0.000 sec  (  0.0%)
Orbital Orthonormalization  ....       0.015 sec  (  0.0%)
DIIS solution               ....       0.006 sec  (  0.0%)
SOSCF solution              ....       0.068 sec  (  0.0%)
Grid generation             ....       4.020 sec  (  1.7%)


-------------------------------------------------------------------------------
                          DFT DISPERSION CORRECTION                            
                                                                               
                              DFTD3 V3.1  Rev 1                                
                              USING zero damping                               
-------------------------------------------------------------------------------
The omegaB97X-D3 functional is recognized. Fit by Chai et al.
Active option DFTDOPT                   ...         3   

molecular C6(AA) [au] = 12135.482765 


            DFT-D V3
 parameters
 s6 scaling factor         :     1.0000 
 rs6 scaling factor        :     1.2810 
 s8 scaling factor         :     1.0000 
 rs8 scaling factor        :     1.0940 
 Damping factor alpha6     :    14.0000 
 Damping factor alpha8     :    16.0000 
 ad hoc parameters k1-k3   :    16.0000     1.3333    -4.0000 

 Edisp/kcal,au: -12.682370969577  -0.020210642454 
 E6   /kcal   :  -5.919013586 
 E8   /kcal   :  -6.763357384 
 % E8         :  53.328808944 

-------------------------   ----------------
Dispersion correction           -0.020210642
-------------------------   ----------------


-------------------------   --------------------
FINAL SINGLE POINT ENERGY      -787.637257231794
-------------------------   --------------------

                                *** OPTIMIZATION RUN DONE ***

                            ***************************************
                            *     ORCA property calculations      *
                            ***************************************

                                    ---------------------
                                    Active property flags
                                    ---------------------
   (+) Dipole Moment


------------------------------------------------------------------------------
                       ORCA ELECTRIC PROPERTIES CALCULATION
------------------------------------------------------------------------------

Dipole Moment Calculation                       ... on
Quadrupole Moment Calculation                   ... off
Polarizability Calculation                      ... off
GBWName                                         ... 065625034.gbw
Electron density file                           ... 065625034.scfp
The origin for moment calculation is the CENTER OF MASS  = (-0.019907, -0.018375 -0.020194)

-------------
DIPOLE MOMENT
-------------
                                X             Y             Z
Electronic contribution:      1.35344       2.72961       2.18175
Nuclear contribution   :     -2.00148      -1.59570      -2.54194
                        -----------------------------------------
Total Dipole Moment    :     -0.64804       1.13391      -0.36020
                        -----------------------------------------
Magnitude (a.u.)       :      1.35479
Magnitude (Debye)      :      3.44360



--------------------
Rotational spectrum 
--------------------
 
Rotational constants in cm-1:     0.024068     0.010881     0.008475 
Rotational constants in MHz :   721.532159   326.197854   254.059681 

 Dipole components along the rotational axes: 
x,y,z [a.u.] :     0.683097     1.091163    -0.422136 
x,y,z [Debye]:     1.736295     2.773516    -1.072985 

 

Timings for individual modules:

Sum of individual times         ...    12904.483 sec (= 215.075 min)
GTO integral calculation        ...        8.722 sec (=   0.145 min)   0.1 %
SCF iterations                  ...     8256.919 sec (= 137.615 min)  64.0 %
SCF Gradient evaluation         ...     4633.321 sec (=  77.222 min)  35.9 %
Geometry relaxation             ...        5.522 sec (=   0.092 min)   0.0 %
                             ****ORCA TERMINATED NORMALLY****
TOTAL RUN TIME: 0 days 3 hours 35 minutes 10 seconds 391 msec
