
                                 *****************
                                 * O   R   C   A *
                                 *****************

           --- An Ab Initio, DFT and Semiempirical electronic structure package ---

                  #######################################################
                  #                        -***-                        #
                  #          Department of theory and spectroscopy      #
                  #               Directorship: Frank Neese             #
                  #        Max Planck Institute fuer Kohlenforschung    #
                  #                Kaiser Wilhelm Platz 1               #
                  #                 D-45470 Muelheim/Ruhr               #
                  #                      Germany                        #
                  #                                                     #
                  #                  All rights reserved                #
                  #                        -***-                        #
                  #######################################################


                         Program Version 4.2.0 -  RELEASE  -


 With contributions from (in alphabetic order):
   Daniel Aravena         : Magnetic Suceptibility
   Michael Atanasov       : Ab Initio Ligand Field Theory (pilot matlab implementation)
   Alexander A. Auer      : GIAO ZORA, VPT2
   Ute Becker             : Parallelization
   Giovanni Bistoni       : ED, misc. LED, open-shell LED, HFLED
   Martin Brehm           : Molecular dynamics
   Dmytro Bykov           : SCF Hessian
   Vijay G. Chilkuri      : MRCI spin determinant printing, contributions to CSF-ICE
   Dipayan Datta          : RHF DLPNO-CCSD density
   Achintya Kumar Dutta   : EOM-CC, STEOM-CC
   Dmitry Ganyushin       : Spin-Orbit,Spin-Spin,Magnetic field MRCI
   Miquel Garcia          : C-PCM Hessian, Gaussian charge scheme
   Yang Guo               : DLPNO-NEVPT2, CIM, IAO-localization
   Andreas Hansen         : Spin unrestricted coupled pair/coupled cluster methods
   Benjamin Helmich-Paris : CASSCF linear response (MC-RPA)
   Lee Huntington         : MR-EOM, pCC
   Robert Izsak           : Overlap fitted RIJCOSX, COSX-SCS-MP3, EOM
   Christian Kollmar      : KDIIS, OOCD, Brueckner-CCSD(T), CCSD density
   Simone Kossmann        : Meta GGA functionals, TD-DFT gradient, OOMP2, MP2 Hessian
   Martin Krupicka        : AUTO-CI
   Lucas Lang             : DCDCAS
   Dagmar Lenk            : GEPOL surface, SMD
   Dimitrios Liakos       : Extrapolation schemes; Compound Job, initial MDCI parallelization
   Dimitrios Manganas     : Further ROCIS development; embedding schemes
   Dimitrios Pantazis     : SARC Basis sets
   Taras Petrenko         : DFT Hessian,TD-DFT gradient, ASA, ECA, R-Raman, ABS, FL, XAS/XES, NRVS
   Peter Pinski           : DLPNO-MP2, DLPNO-MP2 Gradient
   Christoph Reimann      : Effective Core Potentials
   Marius Retegan         : Local ZFS, SOC
   Christoph Riplinger    : Optimizer, TS searches, QM/MM, DLPNO-CCSD(T), (RO)-DLPNO pert. Triples
   Tobias Risthaus        : Range-separated hybrids, TD-DFT gradient, RPA, STAB
   Michael Roemelt        : Original ROCIS implementation
   Masaaki Saitow         : Open-shell DLPNO-CCSD energy and density
   Barbara Sandhoefer     : DKH picture change effects
   Avijit Sen             : IP-ROCIS
   Kantharuban Sivalingam : CASSCF convergence, NEVPT2, FIC-MRCI
   Bernardo de Souza      : ESD, SOC TD-DFT
   Georgi Stoychev        : AutoAux, RI-MP2 NMR
   Willem Van den Heuvel  : Paramagnetic NMR
   Boris Wezisla          : Elementary symmetry handling
   Frank Wennmohs         : Technical directorship


 We gratefully acknowledge several colleagues who have allowed us to
 interface, adapt or use parts of their codes:
   Stefan Grimme, W. Hujo, H. Kruse,             : VdW corrections, initial TS optimization,
                  C. Bannwarth                     DFT functionals, gCP, sTDA/sTD-DF
   Ed Valeev, F. Pavosevic, A. Kumar             : LibInt (2-el integral package), F12 methods
   Garnet Chan, S. Sharma, J. Yang, R. Olivares  : DMRG
   Ulf Ekstrom                                   : XCFun DFT Library
   Mihaly Kallay                                 : mrcc  (arbitrary order and MRCC methods)
   Andreas Klamt, Michael Diedenhofen            : otool_cosmo (COSMO solvation model)
   Jiri Pittner, Ondrej Demel                    : Mk-CCSD
   Frank Weinhold                                : gennbo (NPA and NBO analysis)
   Christopher J. Cramer and Donald G. Truhlar   : smd solvation model
   Lars Goerigk                                  : TD-DFT with DH, B97 family of functionals
   V. Asgeirsson, H. Jonsson                     : NEB implementation
   FAccTs GmbH                                   : IRC, NEB, NEB-TS, Multilevel, MM, QM/MM, CI optimization
   S Lehtola, MJT Oliveira, MAL Marques          : LibXC Library


 Your calculation uses the libint2 library for the computation of 2-el integrals
 For citations please refer to: http://libint.valeyev.net

 Your ORCA version has been built with support for libXC version: 4.2.3
 For citations please refer to: https://tddft.org/programs/libxc/

 This ORCA versions uses:
   CBLAS   interface :  Fast vector & matrix operations
   LAPACKE interface :  Fast linear algebra routines
   SCALAPACK package :  Parallel linear algebra routines


Your calculation utilizes the atom-pairwise dispersion correction
with the zero-damping scheme (D30)
Cite in your paper:
S.Grimme, J.Antony, S.Ehrlich and H.Krieg, J.Chem.Phys., 132, (2010), 154104 
   

XCFun DFT library Copyright 2009-2010 Ulf Ekstrom and contributors.
See http://admol.org/xcfun for more information. This is free soft-
ware; see the source code for copying conditions. There is ABSOLUTELY
NO WARRANTY; not even for MERCHANTABILITY or FITNESS FOR A PARTICULAR
PURPOSE. For details see the documentation. Scientific users of this 
library should cite U. Ekstrom, L. Visscher, R. Bast, A. J. Thorvald-
sen and K. Ruud; J.Chem.Theor.Comp. 2010, DOI: 10.1021/ct100117s
XCFun Version 0.99 
----- Orbital basis set information -----
Your calculation utilizes the basis: def2-SVP
   F. Weigend and R. Ahlrichs, Phys. Chem. Chem. Phys. 7, 3297 (2005).

================================================================================
                                        WARNINGS
                       Please study these warnings very carefully!
================================================================================


WARNING: Geometry Optimization
  ===> : Switching off AutoStart
         For restart on a previous wavefunction, please use MOREAD

INFO   : the flag for use of LIBINT has been found!

================================================================================
                                       INPUT FILE
================================================================================
NAME = 069000867.inp
|  1> # ORCA input file
|  2> # -50.72278630
|  3> ! wB97X-D3 def2-SVP Opt
|  4> * xyz 0 1
|  5>    C        2.33230         2.95760         0.28040
|  6>    H        3.35660         3.13230         0.59760
|  7>    H        2.18950         3.37510        -0.71350
|  8>    H        1.66640         3.46950         0.97080
|  9>    C        2.03540         1.45520         0.26030
| 10>    C        2.93560         0.73000        -0.74730
| 11>    H        3.93470         1.16580        -0.72710
| 12>    H        2.51160         0.87710        -1.74170
| 13>    C        3.05300        -0.76980        -0.44930
| 14>    N        1.78850        -1.44250        -0.41240
| 15>    C        0.98030        -1.81900         0.60190
| 16>    O        1.11380        -1.78600         1.79800
| 17>    C       -0.09880        -2.28900        -0.37360
| 18>    H       -1.05160        -1.77840        -0.27380
| 19>    H       -0.24810        -3.36510        -0.37970
| 20>    C        0.83750        -1.74810        -1.46550
| 21>    H        0.46170        -0.86000        -1.97680
| 22>    H        1.20840        -2.47620        -2.19120
| 23>    H        3.51270        -0.91500         0.53240
| 24>    H        3.68540        -1.24400        -1.20940
| 25>    O        0.69830         1.19600        -0.12850
| 26>    C       -0.25610         1.29660         0.90480
| 27>    C       -1.58600         0.80680         0.40110
| 28>    C       -2.43770         0.09450         1.23570
| 29>    C       -3.66160        -0.35210         0.76850
| 30>    C       -4.04190        -0.09960        -0.53890
| 31>    C       -3.19480         0.60630        -1.37650
| 32>    C       -1.97530         1.06150        -0.90750
| 33>    H       -1.30810         1.61020        -1.55410
| 34>    H       -3.48650         0.80470        -2.39770
| 35>    H       -4.99460        -0.45380        -0.90420
| 36>    H       -4.31690        -0.90560         1.42500
| 37>    H       -2.13520        -0.11830         2.25050
| 38>    H        0.06040         0.69830         1.77170
| 39>    H       -0.35930         2.34450         1.23650
| 40>    H        2.20690         1.03960         1.26640
| 41> *
| 42> 
| 43>                          ****END OF INPUT****
================================================================================

                       *****************************
                       * Geometry Optimization Run *
                       *****************************

Geometry optimization settings:
Update method            Update   .... BFGS
Choice of coordinates    CoordSys .... Z-matrix Internals
Initial Hessian          InHess   .... Almoef's Model

Convergence Tolerances:
Energy Change            TolE     ....  5.0000e-06 Eh
Max. Gradient            TolMAXG  ....  3.0000e-04 Eh/bohr
RMS Gradient             TolRMSG  ....  1.0000e-04 Eh/bohr
Max. Displacement        TolMAXD  ....  4.0000e-03 bohr
RMS Displacement         TolRMSD  ....  2.0000e-03 bohr
Strict Convergence                ....  False
------------------------------------------------------------------------------
                        ORCA OPTIMIZATION COORDINATE SETUP
------------------------------------------------------------------------------

The optimization will be done in new redundant internal coordinates
Making redundant internal coordinates   ...  (new redundants) done
Evaluating the initial hessian          ...  (Almloef) done
Evaluating the coordinates              ...  done
Calculating the B-matrix                .... done
Calculating the G-matrix                .... done
Diagonalizing the G-matrix              .... done
Small eigenvalue found = 3.159e-03
Small eigenvalue found = 1.017e-02
Small eigenvalue found = 1.581e-02
Small eigenvalue found = 1.724e-02
The first mode is                       ....   97
The number of degrees of freedom        ....  102

    -----------------------------------------------------------------
                    Redundant Internal Coordinates


    -----------------------------------------------------------------
         Definition                    Initial Value    Approx d2E/dq
    -----------------------------------------------------------------
      1. B(H   1,C   0)                  1.0864         0.364856   
      2. B(H   2,C   0)                  1.0874         0.363497   
      3. B(H   3,C   0)                  1.0873         0.363754   
      4. B(C   4,C   0)                  1.5316         0.371403   
      5. B(C   5,C   4)                  1.5335         0.368842   
      6. B(H   6,C   5)                  1.0902         0.359839   
      7. B(H   7,C   5)                  1.0910         0.358801   
      8. B(C   8,C   5)                  1.5336         0.368641   
      9. B(N   9,C   8)                  1.4328         0.478221   
     10. B(C  10,N   9)                  1.3505         0.647080   
     11. B(O  11,C  10)                  1.2040         1.108305   
     12. B(C  12,C  10)                  1.5287         0.375348   
     13. B(H  13,C  12)                  1.0856         0.365985   
     14. B(H  14,C  12)                  1.0864         0.364861   
     15. B(C  15,N   9)                  1.4515         0.446456   
     16. B(C  15,C  12)                  1.5367         0.364479   
     17. B(H  16,C  15)                  1.0915         0.358120   
     18. B(H  17,C  15)                  1.0929         0.356340   
     19. B(H  18,C   8)                  1.0937         0.355261   
     20. B(H  19,C   8)                  1.0966         0.351465   
     21. B(O  20,C   4)                  1.4164         0.507876   
     22. B(C  21,O  20)                  1.4102         0.519544   
     23. B(C  22,C  21)                  1.5041         0.410898   
     24. B(C  23,C  22)                  1.3890         0.627096   
     25. B(C  24,C  23)                  1.3841         0.638549   
     26. B(C  24,H  13)                  3.1516         0.000185   
     27. B(C  25,C  24)                  1.3848         0.636840   
     28. B(C  26,C  25)                  1.3847         0.637036   
     29. B(C  27,C  26)                  1.3836         0.639661   
     30. B(C  27,C  22)                  1.3888         0.627478   
     31. B(H  28,C  27)                  1.0790         0.374900   
     32. B(H  29,C  26)                  1.0804         0.373003   
     33. B(H  30,C  25)                  1.0801         0.373486   
     34. B(H  31,C  24)                  1.0802         0.373338   
     35. B(H  32,C  23)                  1.0801         0.373442   
     36. B(H  33,C  21)                  1.0998         0.347314   
     37. B(H  34,C  21)                  1.1040         0.342074   
     38. B(H  35,C   4)                  1.1020         0.344588   
     39. A(H   1,C   0,H   2)          109.2033         0.291870   
     40. A(H   2,C   0,C   4)          109.8257         0.324508   
     41. A(H   1,C   0,H   3)          108.4412         0.291903   
     42. A(H   3,C   0,C   4)          110.5763         0.324546   
     43. A(H   1,C   0,C   4)          110.1412         0.324707   
     44. A(H   2,C   0,H   3)          108.6136         0.291731   
     45. A(C   5,C   4,O  20)          106.6940         0.379840   
     46. A(C   5,C   4,H  35)          109.2801         0.321314   
     47. A(C   0,C   4,H  35)          109.1353         0.321678   
     48. A(C   0,C   4,C   5)          111.0221         0.362200   
     49. A(C   0,C   4,O  20)          111.4761         0.380296   
     50. A(O  20,C   4,H  35)          109.1786         0.336702   
     51. A(H   7,C   5,C   8)          109.7989         0.323420   
     52. A(H   6,C   5,C   8)          108.4921         0.323573   
     53. A(C   4,C   5,H   6)          109.6797         0.323602   
     54. A(C   4,C   5,C   8)          112.3180         0.361739   
     55. A(H   6,C   5,H   7)          108.6118         0.290641   
     56. A(C   4,C   5,H   7)          107.8781         0.323449   
     57. A(C   5,C   8,N   9)          113.3657         0.375871   
     58. A(H  18,C   8,H  19)          108.8058         0.289120   
     59. A(N   9,C   8,H  19)          108.8918         0.334447   
     60. A(N   9,C   8,H  18)          106.5891         0.335044   
     61. A(C   5,C   8,H  18)          109.6593         0.322894   
     62. A(C   5,C   8,H  19)          109.4115         0.322326   
     63. A(C   8,N   9,C  10)          132.7198         0.412151   
     64. A(C  10,N   9,C  15)           95.4010         0.407162   
     65. A(C   8,N   9,C  15)          131.1784         0.386115   
     66. A(O  11,C  10,C  12)          136.1074         0.437401   
     67. A(N   9,C  10,C  12)           91.6553         0.397450   
     68. A(N   9,C  10,O  11)          132.2341         0.479864   
     69. A(H  14,C  12,C  15)          115.3649         0.323706   
     70. A(H  13,C  12,C  15)          115.7553         0.323870   
     71. A(C  10,C  12,C  15)           85.1300         0.362118   
     72. A(H  13,C  12,H  14)          110.2292         0.292184   
     73. A(C  10,C  12,H  14)          113.8983         0.325272   
     74. A(C  10,C  12,H  13)          114.5997         0.325437   
     75. A(C  12,C  15,H  16)          114.1711         0.322718   
     76. A(N   9,C  15,H  16)          113.2122         0.331686   
     77. A(N   9,C  15,C  12)           87.5806         0.370718   
     78. A(C  12,C  15,H  17)          116.3663         0.322454   
     79. A(N   9,C  15,H  17)          113.5588         0.331413   
     80. A(H  16,C  15,H  17)          110.3571         0.290109   
     81. A(C   4,O  20,C  21)          115.1316         0.400703   
     82. A(O  20,C  21,H  34)          110.5565         0.337566   
     83. A(C  22,C  21,H  33)          109.9535         0.327486   
     84. A(O  20,C  21,H  33)          110.1193         0.338423   
     85. A(C  22,C  21,H  34)          109.0911         0.326667   
     86. A(O  20,C  21,C  22)          109.2560         0.388572   
     87. A(H  33,C  21,H  34)          107.8444         0.286881   
     88. A(C  23,C  22,C  27)          119.2302         0.435896   
     89. A(C  21,C  22,C  27)          120.2430         0.404242   
     90. A(C  21,C  22,C  23)          120.5268         0.404198   
     91. A(C  24,C  23,H  32)          120.0815         0.356872   
     92. A(C  22,C  23,H  32)          119.5935         0.355777   
     93. A(C  22,C  23,C  24)          120.3221         0.437272   
     94. A(C  25,C  24,H  31)          120.0417         0.356693   
     95. A(C  23,C  24,H  31)          119.7781         0.356856   
     96. A(C  23,C  24,C  25)          120.1785         0.438490   
     97. A(C  26,C  25,H  30)          120.1458         0.356736   
     98. A(C  24,C  25,H  30)          120.1165         0.356717   
     99. A(C  24,C  25,C  26)          119.7376         0.438302   
    100. A(C  27,C  26,H  29)          119.8641         0.356907   
    101. A(C  25,C  26,H  29)          120.0120         0.356657   
    102. A(C  25,C  26,C  27)          120.1237         0.438651   
    103. A(C  26,C  27,H  28)          120.6084         0.357214   
    104. A(C  22,C  27,H  28)          118.9833         0.356049   
    105. A(C  22,C  27,C  26)          120.4054         0.437457   
    106. D(H  35,C   4,C   0,H   2)    178.6507         0.011022   
    107. D(O  20,C   4,C   0,H   1)    179.0183         0.011022   
    108. D(H  35,C   4,C   0,H   1)     58.3426         0.011022   
    109. D(O  20,C   4,C   0,H   2)    -60.6737         0.011022   
    110. D(C   5,C   4,C   0,H   1)    -62.1722         0.011022   
    111. D(C   5,C   4,C   0,H   2)     58.1359         0.011022   
    112. D(H  35,C   4,C   0,H   3)    -61.4975         0.011022   
    113. D(C   5,C   4,C   0,H   3)    177.9878         0.011022   
    114. D(O  20,C   4,C   0,H   3)     59.1782         0.011022   
    115. D(H   7,C   5,C   4,O  20)     41.7041         0.010880   
    116. D(H   7,C   5,C   4,C   0)    -79.9459         0.010880   
    117. D(H   6,C   5,C   4,H  35)    -82.2420         0.010880   
    118. D(H   6,C   5,C   4,O  20)    159.8370         0.010880   
    119. D(H   7,C   5,C   4,H  35)    159.6251         0.010880   
    120. D(H   6,C   5,C   4,C   0)     38.1870         0.010880   
    121. D(C   8,C   5,C   4,O  20)    -79.4364         0.010880   
    122. D(C   8,C   5,C   4,H  35)     38.4846         0.010880   
    123. D(C   8,C   5,C   4,C   0)    158.9136         0.010880   
    124. D(H  19,C   8,C   5,C   4)    178.6639         0.010869   
    125. D(H  19,C   8,C   5,H   7)     58.6322         0.010869   
    126. D(H  18,C   8,C   5,H   7)    177.8963         0.010869   
    127. D(H  18,C   8,C   5,H   6)     59.3367         0.010869   
    128. D(H  18,C   8,C   5,C   4)    -62.0720         0.010869   
    129. D(N   9,C   8,C   5,H   7)    -63.1170         0.010869   
    130. D(H  19,C   8,C   5,H   6)    -59.9274         0.010869   
    131. D(N   9,C   8,C   5,H   6)    178.3234         0.010869   
    132. D(N   9,C   8,C   5,C   4)     56.9147         0.010869   
    133. D(C  15,N   9,C   8,C   5)     69.1112         0.019557   
    134. D(C  10,N   9,C   8,H  19)    139.1143         0.019557   
    135. D(C  10,N   9,C   8,C   5)    -98.8464         0.019557   
    136. D(C  10,N   9,C   8,H  18)     21.8909         0.019557   
    137. D(C  15,N   9,C   8,H  19)    -52.9281         0.019557   
    138. D(C  15,N   9,C   8,H  18)   -170.1515         0.019557   
    139. D(C  12,C  10,N   9,C  15)      3.8339         0.034144   
    140. D(C  12,C  10,N   9,C   8)    174.7586         0.034144   
    141. D(O  11,C  10,N   9,C   8)     -5.8310         0.034144   
    142. D(O  11,C  10,N   9,C  15)   -176.7557         0.034144   
    143. D(C  15,C  12,C  10,N   9)     -3.6179         0.010529   
    144. D(H  14,C  12,C  10,O  11)    -67.3623         0.010529   
    145. D(H  14,C  12,C  10,N   9)    112.0082         0.010529   
    146. D(H  13,C  12,C  10,O  11)     60.8678         0.010529   
    147. D(C  15,C  12,C  10,O  11)    177.0116         0.010529   
    148. D(H  13,C  12,C  10,N   9)   -119.7618         0.010529   
    149. D(H  17,C  15,C  12,H  14)      4.3754         0.010640   
    150. D(H  17,C  15,C  12,H  13)   -126.4382         0.010640   
    151. D(H  17,C  15,C  12,C  10)    118.5530         0.010640   
    152. D(H  16,C  15,C  12,H  13)      3.9554         0.010640   
    153. D(H  16,C  15,C  12,C  10)   -111.0535         0.010640   
    154. D(N   9,C  15,C  12,H  14)   -110.8102         0.010640   
    155. D(N   9,C  15,C  12,H  13)    118.3763         0.010640   
    156. D(N   9,C  15,C  12,C  10)      3.3674         0.010640   
    157. D(H  17,C  15,N   9,C  10)   -121.6230         0.017001   
    158. D(H  17,C  15,N   9,C   8)     67.2338         0.017001   
    159. D(H  16,C  15,C  12,H  14)    134.7689         0.010640   
    160. D(H  16,C  15,N   9,C   8)    -59.6306         0.017001   
    161. D(C  12,C  15,N   9,C  10)     -3.8157         0.017001   
    162. D(C  12,C  15,N   9,C   8)   -174.9590         0.017001   
    163. D(H  16,C  15,N   9,C  10)    111.5127         0.017001   
    164. D(C  21,O  20,C   4,H  35)     37.7336         0.020413   
    165. D(C  21,O  20,C   4,C   5)    155.7212         0.020413   
    166. D(C  21,O  20,C   4,C   0)    -82.9168         0.020413   
    167. D(H  33,C  21,O  20,C   4)    -51.0367         0.021399   
    168. D(C  22,C  21,O  20,C   4)   -171.8968         0.021399   
    169. D(H  34,C  21,O  20,C   4)     68.0359         0.021399   
    170. D(C  27,C  22,C  21,H  34)     84.2414         0.012503   
    171. D(C  27,C  22,C  21,H  33)   -157.6833         0.012503   
    172. D(C  27,C  22,C  21,O  20)    -36.7222         0.012503   
    173. D(C  23,C  22,C  21,H  34)    -95.8366         0.012503   
    174. D(C  23,C  22,C  21,H  33)     22.2387         0.012503   
    175. D(C  23,C  22,C  21,O  20)    143.1998         0.012503   
    176. D(H  32,C  23,C  22,C  27)    179.1870         0.027250   
    177. D(H  32,C  23,C  22,C  21)     -0.7358         0.027250   
    178. D(C  24,C  23,C  22,C  27)     -0.1963         0.027250   
    179. D(C  24,C  23,C  22,C  21)    179.8809         0.027250   
    180. D(H  31,C  24,C  23,H  32)      0.5944         0.030784   
    181. D(H  31,C  24,C  23,C  22)    179.9747         0.030784   
    182. D(C  25,C  24,C  23,H  32)   -178.9253         0.030784   
    183. D(C  25,C  24,C  23,C  22)      0.4549         0.030784   
    184. D(H  30,C  25,C  24,H  31)      0.1073         0.030608   
    185. D(H  30,C  25,C  24,C  23)    179.6258         0.030608   
    186. D(C  26,C  25,C  24,H  31)   -179.7619         0.030608   
    187. D(C  26,C  25,C  24,C  23)     -0.2433         0.030608   
    188. D(H  29,C  26,C  25,H  30)      0.0525         0.028178   
    189. D(H  29,C  26,C  25,C  24)    179.9216         0.028178   
    190. D(C  27,C  26,C  25,H  30)    179.9066         0.028178   
    191. D(C  27,C  26,C  25,C  24)     -0.2243         0.028178   
    192. D(H  28,C  27,C  26,H  29)     -0.2985         0.028426   
    193. D(H  28,C  27,C  26,C  25)    179.8472         0.028426   
    194. D(C  22,C  27,C  26,H  29)   -179.6618         0.028426   
    195. D(C  22,C  27,C  26,C  25)      0.4839         0.028426   
    196. D(H  28,C  27,C  22,C  23)   -179.6458         0.027285   
    197. D(H  28,C  27,C  22,C  21)      0.2772         0.027285   
    198. D(C  26,C  27,C  22,C  23)     -0.2722         0.027285   
    199. D(C  26,C  27,C  22,C  21)    179.6508         0.027285   
    -----------------------------------------------------------------

Number of atoms                         .... 36
Number of degrees of freedom            .... 199

         *************************************************************
         *                GEOMETRY OPTIMIZATION CYCLE   1            *
         *************************************************************
---------------------------------
CARTESIAN COORDINATES (ANGSTROEM)
---------------------------------
  C      2.332300    2.957600    0.280400
  H      3.356600    3.132300    0.597600
  H      2.189500    3.375100   -0.713500
  H      1.666400    3.469500    0.970800
  C      2.035400    1.455200    0.260300
  C      2.935600    0.730000   -0.747300
  H      3.934700    1.165800   -0.727100
  H      2.511600    0.877100   -1.741700
  C      3.053000   -0.769800   -0.449300
  N      1.788500   -1.442500   -0.412400
  C      0.980300   -1.819000    0.601900
  O      1.113800   -1.786000    1.798000
  C     -0.098800   -2.289000   -0.373600
  H     -1.051600   -1.778400   -0.273800
  H     -0.248100   -3.365100   -0.379700
  C      0.837500   -1.748100   -1.465500
  H      0.461700   -0.860000   -1.976800
  H      1.208400   -2.476200   -2.191200
  H      3.512700   -0.915000    0.532400
  H      3.685400   -1.244000   -1.209400
  O      0.698300    1.196000   -0.128500
  C     -0.256100    1.296600    0.904800
  C     -1.586000    0.806800    0.401100
  C     -2.437700    0.094500    1.235700
  C     -3.661600   -0.352100    0.768500
  C     -4.041900   -0.099600   -0.538900
  C     -3.194800    0.606300   -1.376500
  C     -1.975300    1.061500   -0.907500
  H     -1.308100    1.610200   -1.554100
  H     -3.486500    0.804700   -2.397700
  H     -4.994600   -0.453800   -0.904200
  H     -4.316900   -0.905600    1.425000
  H     -2.135200   -0.118300    2.250500
  H      0.060400    0.698300    1.771700
  H     -0.359300    2.344500    1.236500
  H      2.206900    1.039600    1.266400

----------------------------
CARTESIAN COORDINATES (A.U.)
----------------------------
  NO LB      ZA    FRAG     MASS         X           Y           Z
   0 C     6.0000    0    12.011    4.407408    5.589054    0.529879
   1 H     1.0000    0     1.008    6.343055    5.919189    1.129300
   2 H     1.0000    0     1.008    4.137555    6.378015   -1.348320
   3 H     1.0000    0     1.008    3.149040    6.556405    1.834546
   4 C     6.0000    0    12.011    3.846349    2.749929    0.491896
   5 C     6.0000    0    12.011    5.547480    1.379500   -1.412192
   6 H     1.0000    0     1.008    7.435505    2.203043   -1.374020
   7 H     1.0000    0     1.008    4.746236    1.657479   -3.291336
   8 C     6.0000    0    12.011    5.769334   -1.454711   -0.849054
   9 N     7.0000    0    14.007    3.379775   -2.725930   -0.779323
  10 C     6.0000    0    12.011    1.852499   -3.437412    1.137426
  11 O     8.0000    0    15.999    2.104777   -3.375051    3.397728
  12 C     6.0000    0    12.011   -0.186705   -4.325583   -0.706002
  13 H     1.0000    0     1.008   -1.987236   -3.360689   -0.517407
  14 H     1.0000    0     1.008   -0.468841   -6.359117   -0.717529
  15 C     6.0000    0    12.011    1.582646   -3.303430   -2.769394
  16 H     1.0000    0     1.008    0.872487   -1.625164   -3.735611
  17 H     1.0000    0     1.008    2.283545   -4.679340   -4.140768
  18 H     1.0000    0     1.008    6.638041   -1.729099    1.006090
  19 H     1.0000    0     1.008    6.964397   -2.350819   -2.285435
  20 O     8.0000    0    15.999    1.319596    2.260112   -0.242830
  21 C     6.0000    0    12.011   -0.483959    2.450219    1.709824
  22 C     6.0000    0    12.011   -2.997106    1.524631    0.757969
  23 C     6.0000    0    12.011   -4.606585    0.178579    2.335135
  24 C     6.0000    0    12.011   -6.919421   -0.665373    1.452255
  25 C     6.0000    0    12.011   -7.638084   -0.188217   -1.018373
  26 C     6.0000    0    12.011   -6.037297    1.145741   -2.601208
  27 C     6.0000    0    12.011   -3.732776    2.005944   -1.714926
  28 H     1.0000    0     1.008   -2.471951    3.042837   -2.936823
  29 H     1.0000    0     1.008   -6.588530    1.520663   -4.530996
  30 H     1.0000    0     1.008   -9.438426   -0.857558   -1.708690
  31 H     1.0000    0     1.008   -8.157759   -1.711336    2.692860
  32 H     1.0000    0     1.008   -4.034943   -0.223555    4.252829
  33 H     1.0000    0     1.008    0.114139    1.319596    3.348028
  34 H     1.0000    0     1.008   -0.678979    4.430463    2.336646
  35 H     1.0000    0     1.008    4.170437    1.964559    2.393149

--------------------------------
INTERNAL COORDINATES (ANGSTROEM)
--------------------------------
 C      0   0   0     0.000000000000     0.00000000     0.00000000
 H      1   0   0     1.086428285714     0.00000000     0.00000000
 H      1   2   0     1.087444389383   109.20332951     0.00000000
 H      1   2   3     1.087251847550   108.44121899   241.80786458
 C      1   2   3     1.531587209401   110.14121133   120.68263546
 C      5   1   2     1.533470847457   111.02208234   297.82782943
 H      6   5   1     1.090197454593   109.67972496    38.18702051
 H      6   5   1     1.090983854143   107.87806848   280.05409667
 C      6   5   1     1.533618857474   112.31800971   158.91360563
 N      9   6   5     1.432776029252   113.36572426    56.91471249
 C     10   9   6     1.350460654740   132.71981842   261.15360777
 O     11  10   9     1.203979426735   132.23409151   354.16902439
 C     11  10   9     1.528710914464    91.65527237   174.75855436
 H     13  11  10     1.085587509140   114.59965865   240.23818294
 H     13  11  10     1.086424829429   113.89834286   112.00815585
 C     10   9   6     1.451486124632   131.17842606    69.11119652
 H     16  10   9     1.091501232249   113.21222703   300.36938031
 H     16  10   9     1.092857223063   113.55884108    67.23375591
 H      9   6   5     1.093682778506   109.65933083   297.92803542
 H      9   6   5     1.096607226859   109.41148616   178.66394153
 O      5   1   2     1.416399128071   111.47606115   179.01826006
 C     21   5   1     1.410215802634   115.13160694   277.08323825
 C     22  21   5     1.504078368969   109.25603322   188.10324541
 C     23  22  21     1.389000122390   120.52677057   143.19977705
 C     24  23  22     1.384073195319   120.32211208   179.88090895
 C     25  24  23     1.384802910164   120.17846860     0.45491994
 C     26  25  24     1.384719097868   119.73759173   359.75665047
 C     27  26  25     1.383599757878   120.12374359   359.77568625
 H     28  27  26     1.079036185677   120.60837003   179.84720265
 H     27  26  25     1.080416998200   120.01201075   179.92161538
 H     26  25  24     1.080064359193   120.11646511   179.62577273
 H     25  24  23     1.080172481597   119.77805837   179.97469471
 H     24  23  22     1.080096815105   119.59348682   359.26418461
 H     22  21   5     1.099841238543   110.11929057   308.96332248
 H     22  21   5     1.103978958133   110.55653265    68.03586398
 H      5   1   2     1.101985852904   109.13529003    58.34256978

---------------------------
INTERNAL COORDINATES (A.U.)
---------------------------
 C      0   0   0     0.000000000000     0.00000000     0.00000000
 H      1   0   0     2.053051924145     0.00000000     0.00000000
 H      1   2   0     2.054972081803   109.20332951     0.00000000
 H      1   2   3     2.054608230469   108.44121899   241.80786458
 C      1   2   3     2.894280375984   110.14121133   120.68263546
 C      5   1   2     2.897839936046   111.02208234   297.82782943
 H      6   5   1     2.060174621078   109.67972496    38.18702051
 H      6   5   1     2.061660700860   107.87806848   280.05409667
 C      6   5   1     2.898119634443   112.31800971   158.91360563
 N      9   6   5     2.707554306534   113.36572426    56.91471249
 C     10   9   6     2.552000792094   132.71981842   261.15360777
 O     11  10   9     2.275191387404   132.23409151   354.16902439
 C     11  10   9     2.888844966272    91.65527237   174.75855436
 H     13  11  10     2.051463086680   114.59965865   240.23818294
 H     13  11  10     2.053045392713   113.89834286   112.00815585
 C     10   9   6     2.742911262742   131.17842606    69.11119652
 H     16  10   9     2.062638403787   113.21222703   300.36938031
 H     16  10   9     2.065200855066   113.55884108    67.23375591
 H      9   6   5     2.066760928762   109.65933083   297.92803542
 H      9   6   5     2.072287335243   109.41148616   178.66394153
 O      5   1   2     2.676606448379   111.47606115   179.01826006
 C     21   5   1     2.664921656707   115.13160694   277.08323825
 C     22  21   5     2.842296201306   109.25603322   188.10324541
 C     23  22  21     2.624829831301   120.52677057   143.19977705
 C     24  23  22     2.615519288454   120.32211208   179.88090895
 C     25  24  23     2.616898249668   120.17846860     0.45491994
 C     26  25  24     2.616739867381   119.73759173   359.75665047
 C     27  26  25     2.614624621349   120.12374359   359.77568625
 H     28  27  26     2.039082879520   120.60837003   179.84720265
 H     27  26  25     2.041692237032   120.01201075   179.92161538
 H     26  25  24     2.041025845885   120.11646511   179.62577273
 H     25  24  23     2.041230167617   119.77805837   179.97469471
 H     24  23  22     2.041087178669   119.59348682   359.26418461
 H     22  21   5     2.078398731639   110.11929057   308.96332248
 H     22  21   5     2.086217888483   110.55653265    68.03586398
 H      5   1   2     2.082451465444   109.13529003    58.34256978

---------------------
BASIS SET INFORMATION
---------------------
There are 4 groups of distinct atoms

 Group   1 Type C   : 7s4p1d contracted to 3s2p1d pattern {511/31/1}
 Group   2 Type H   : 4s1p contracted to 2s1p pattern {31/1}
 Group   3 Type N   : 7s4p1d contracted to 3s2p1d pattern {511/31/1}
 Group   4 Type O   : 7s4p1d contracted to 3s2p1d pattern {511/31/1}

Atom   0C    basis set group =>   1
Atom   1H    basis set group =>   2
Atom   2H    basis set group =>   2
Atom   3H    basis set group =>   2
Atom   4C    basis set group =>   1
Atom   5C    basis set group =>   1
Atom   6H    basis set group =>   2
Atom   7H    basis set group =>   2
Atom   8C    basis set group =>   1
Atom   9N    basis set group =>   3
Atom  10C    basis set group =>   1
Atom  11O    basis set group =>   4
Atom  12C    basis set group =>   1
Atom  13H    basis set group =>   2
Atom  14H    basis set group =>   2
Atom  15C    basis set group =>   1
Atom  16H    basis set group =>   2
Atom  17H    basis set group =>   2
Atom  18H    basis set group =>   2
Atom  19H    basis set group =>   2
Atom  20O    basis set group =>   4
Atom  21C    basis set group =>   1
Atom  22C    basis set group =>   1
Atom  23C    basis set group =>   1
Atom  24C    basis set group =>   1
Atom  25C    basis set group =>   1
Atom  26C    basis set group =>   1
Atom  27C    basis set group =>   1
Atom  28H    basis set group =>   2
Atom  29H    basis set group =>   2
Atom  30H    basis set group =>   2
Atom  31H    basis set group =>   2
Atom  32H    basis set group =>   2
Atom  33H    basis set group =>   2
Atom  34H    basis set group =>   2
Atom  35H    basis set group =>   2
------------------------------------------------------------------------------
                           ORCA GTO INTEGRAL CALCULATION
------------------------------------------------------------------------------

                         BASIS SET STATISTICS AND STARTUP INFO

 # of primitive gaussian shells          ...  299
 # of primitive gaussian functions       ...  541
 # of contracted shells                  ...  159
 # of contracted basis functions         ...  333
 Highest angular momentum                ...    2
 Maximum contraction depth               ...    5
 Integral package used                   ... LIBINT
 Integral threshhold            Thresh   ...  2.500e-11
 Primitive cut-off              TCut     ...  2.500e-12


------------------------------ INTEGRAL EVALUATION ----------------------------


 * One electron integrals 
 Pre-screening matrix                    ... done
 Shell pair data                         ... done (   0.003 sec)

-------------------------------------------------------------------------------
                                 ORCA SCF
-------------------------------------------------------------------------------

------------
SCF SETTINGS
------------
Hamiltonian:
 Density Functional     Method          .... DFT(GTOs)
 Exchange Functional    Exchange        .... WB97X-D3
 Correlation Functional Correlation     .... WB97X-D3
 Gradients option       PostSCFGGA      .... off
 Hybrid DFT is turned on
   Fraction HF Exchange ScalHFX         ....  0.195728
   Scaling of DF-GGA-X  ScalDFX         ....  0.000000
   Scaling of DF-GGA-C  ScalDFC         ....  1.000000
   Scaling of DF-LDA-C  ScalLDAC        ....  1.000000
   Perturbative correction              ....  0.000000
   Density functional embedding theory  .... OFF
 Long-range corrected/Screened/Range-Separated Hybrid DFT is turned on
   Amount of maximum screened exact exchange              ....  0.804272
   Range separation parameter mu (erf(mu*r12)/r12)        ....  0.250000


General Settings:
 Integral files         IntName         .... 069000867
 Hartree-Fock type      HFTyp           .... RHF
 Total Charge           Charge          ....    0
 Multiplicity           Mult            ....    1
 Number of Electrons    NEL             ....  126
 Basis Dimension        Dim             ....  333
 Nuclear Repulsion      ENuc            ....   1268.6862493913 Eh

Convergence Acceleration:
 DIIS                   CNVDIIS         .... on
   Start iteration      DIISMaxIt       ....    12
   Startup error        DIISStart       ....  0.200000
   # of expansion vecs  DIISMaxEq       ....     5
   Bias factor          DIISBfac        ....   1.050
   Max. coefficient     DIISMaxC        ....  10.000
 Newton-Raphson         CNVNR           .... off
 SOSCF                  CNVSOSCF        .... on
   Start iteration      SOSCFMaxIt      ....   150
   Startup grad/error   SOSCFStart      ....  0.003300
 Level Shifting         CNVShift        .... on
   Level shift para.    LevelShift      ....    0.2500
   Turn off err/grad.   ShiftErr        ....    0.0010
 Zerner damping         CNVZerner       .... off
 Static damping         CNVDamp         .... on
   Fraction old density DampFac         ....    0.7000
   Max. Damping (<1)    DampMax         ....    0.9800
   Min. Damping (>=0)   DampMin         ....    0.0000
   Turn off err/grad.   DampErr         ....    0.1000
 Fernandez-Rico         CNVRico         .... off

SCF Procedure:
 Maximum # iterations   MaxIter         ....   125
 SCF integral mode      SCFMode         .... Direct
   Integral package                     .... LIBINT
 Reset frequency        DirectResetFreq ....    20
 Integral Threshold     Thresh          ....  2.500e-11 Eh
 Primitive CutOff       TCut            ....  2.500e-12 Eh

Convergence Tolerance:
 Convergence Check Mode ConvCheckMode   .... Total+1el-Energy
 Convergence forced     ConvForced      .... 0
 Energy Change          TolE            ....  1.000e-08 Eh
 1-El. energy change                    ....  1.000e-05 Eh
 Orbital Gradient       TolG            ....  1.000e-05
 Orbital Rotation angle TolX            ....  1.000e-05
 DIIS Error             TolErr          ....  5.000e-07


Diagonalization of the overlap matrix:
Smallest eigenvalue                        ... 2.647e-04
Time for diagonalization                   ...    0.054 sec
Threshold for overlap eigenvalues          ... 1.000e-08
Number of eigenvalues below threshold      ... 0
Time for construction of square roots      ...    0.008 sec
Total time needed                          ...    0.063 sec

-------------------
DFT GRID GENERATION
-------------------

General Integration Accuracy     IntAcc      ...  4.340
Radial Grid Type                 RadialGrid  ... Gauss-Chebyshev
Angular Grid (max. acc.)         AngularGrid ... Lebedev-110
Angular grid pruning method      GridPruning ... 3 (G Style)
Weight generation scheme         WeightScheme... Becke
Basis function cutoff            BFCut       ...    1.0000e-11
Integration weight cutoff        WCut        ...    1.0000e-14
Grids for H and He will be reduced by one unit

# of grid points (after initial pruning)     ...  43404 (   0.0 sec)
# of grid points (after weights+screening)   ...  38462 (   0.3 sec)
nearest neighbour list constructed           ...    0.0 sec
Grid point re-assignment to atoms done       ...    0.0 sec
Grid point division into batches done        ...    0.0 sec
Reduced shell lists constructed in    0.4 sec

Total number of grid points                  ...    38462
Total number of batches                      ...      620
Average number of points per batch           ...       62
Average number of grid points per atom       ...     1068
Average number of shells per batch           ...    92.58 (58.23%)
Average number of basis functions per batch  ...   181.94 (54.64%)
Average number of large shells per batch     ...    63.28 (68.35%)
Average number of large basis fcns per batch ...   123.24 (67.73%)
Maximum spatial batch extension              ...  21.36, 24.17, 21.03 au
Average spatial batch extension              ...   3.23,  3.39,  3.39 au

Time for grid setup =    0.765 sec

------------------------------
INITIAL GUESS: MODEL POTENTIAL
------------------------------
Loading Hartree-Fock densities                     ... done
Calculating cut-offs                               ... done
Setting up the integral package                    ... done
Initializing the effective Hamiltonian             ... done
Starting the Coulomb interaction                   ... done (   0.6 sec)
Reading the grid                                   ... done
Mapping shells                                     ... done
Starting the XC term evaluation                    ... done (   0.7 sec)
  promolecular density results
     # of electrons  =    125.987805898
     EX              =   -100.143483628
     EC              =     -4.214255235
     EX+EC           =   -104.357738863
Transforming the Hamiltonian                       ... done (   0.0 sec)
Diagonalizing the Hamiltonian                      ... done (   0.0 sec)
Back transforming the eigenvectors                 ... done (   0.0 sec)
Now organizing SCF variables                       ... done
                      ------------------
                      INITIAL GUESS DONE (   2.2 sec)
                      ------------------
--------------
SCF ITERATIONS
--------------
ITER       Energy         Delta-E        Max-DP      RMS-DP      [F,P]     Damp
               ***  Starting incremental Fock matrix formation  ***
  0   -749.0090907907   0.000000000000 0.07289208  0.00148334  0.2497736 0.7000
  1   -749.1540534629  -0.144962672219 0.04681274  0.00110329  0.1242340 0.7000
                               ***Turning on DIIS***
  2   -749.2291350133  -0.075081550346 0.07977921  0.00220548  0.0516289 0.0000
  3   -749.3549015858  -0.125766572541 0.04275316  0.00066485  0.0606693 0.0000
  4   -749.3713221747  -0.016420588943 0.00913297  0.00014326  0.0097439 0.0000
  5   -749.3717857712  -0.000463596465 0.00422122  0.00006184  0.0074121 0.0000
                      *** Initiating the SOSCF procedure ***
                           *** Shutting down DIIS ***
                      *** Re-Reading the Fockian *** 
                      *** Removing any level shift *** 
ITER      Energy       Delta-E        Grad      Rot      Max-DP    RMS-DP
  6   -749.37189441  -0.0001086353  0.000965  0.000965  0.001652  0.000030
               *** Restarting incremental Fock matrix formation ***
  7   -749.37190644  -0.0000120342  0.000336  0.000759  0.001411  0.000021
  8   -749.37190991  -0.0000034715  0.000353  0.001166  0.000894  0.000016
  9   -749.37191110  -0.0000011887  0.000118  0.000262  0.000243  0.000005
 10   -749.37191132  -0.0000002214  0.000020  0.000034  0.000095  0.000002
 11   -749.37191134  -0.0000000141  0.000014  0.000042  0.000059  0.000001
                  ***Gradient check signals convergence***
              ***Rediagonalizing the Fockian in SOSCF/NRSCF***

               *****************************************************
               *                     SUCCESS                       *
               *           SCF CONVERGED AFTER  12 CYCLES          *
               *****************************************************

Setting up the final grid:

General Integration Accuracy     IntAcc      ...  4.670
Radial Grid Type                 RadialGrid  ... Gauss-Chebyshev
Angular Grid (max. acc.)         AngularGrid ... Lebedev-302
Angular grid pruning method      GridPruning ... 3 (G Style)
Weight generation scheme         WeightScheme... Becke
Basis function cutoff            BFCut       ...    1.0000e-11
Integration weight cutoff        WCut        ...    1.0000e-14
Grids for H and He will be reduced by one unit

# of grid points (after initial pruning)     ... 170090 (   0.1 sec)
# of grid points (after weights+screening)   ... 147381 (   1.3 sec)
nearest neighbour list constructed           ...    0.0 sec
Grid point re-assignment to atoms done       ...    0.0 sec
Grid point division into batches done        ...    0.5 sec
Reduced shell lists constructed in    1.8 sec

Total number of grid points                  ...   147381
Total number of batches                      ...     2322
Average number of points per batch           ...       63
Average number of grid points per atom       ...     4094
Average number of shells per batch           ...    84.52 (53.16%)
Average number of basis functions per batch  ...   164.30 (49.34%)
Average number of large shells per batch     ...    56.62 (66.99%)
Average number of large basis fcns per batch ...   109.20 (66.46%)
Maximum spatial batch extension              ...  20.50, 21.44, 19.27 au
Average spatial batch extension              ...   2.18,  2.21,  2.22 au

Final grid set up in    3.2 sec
Final integration                            ... done (   2.7 sec)
Change in XC energy                          ...     0.004992023
Integrated number of electrons               ...   125.999958674
Previous integrated no of electrons          ...   125.998773342

----------------
TOTAL SCF ENERGY
----------------

Total Energy       :         -749.36691932 Eh          -20391.31055 eV

Components:
Nuclear Repulsion  :         1268.68624939 Eh           34522.70795 eV
Electronic Energy  :        -2018.05316871 Eh          -54914.01850 eV
One Electron Energy:        -3536.27427987 Eh          -96226.91524 eV
Two Electron Energy:         1518.22111116 Eh           41312.89674 eV

Virial components:
Potential Energy   :        -1491.14480720 Eh          -40576.11305 eV
Kinetic Energy     :          741.77788788 Eh           20184.80250 eV
Virial Ratio       :            2.01023087


DFT components:
N(Alpha)           :       62.999979337190 electrons
N(Beta)            :       62.999979337190 electrons
N(Total)           :      125.999958674380 electrons
E(XC)              :      -73.487548319736 Eh       
DFET-embed. en.    :        0.000000000000 Eh       

---------------
SCF CONVERGENCE
---------------

  Last Energy change         ...   -8.3253e-09  Tolerance :   1.0000e-08
  Last MAX-Density change    ...    1.0207e-05  Tolerance :   1.0000e-07
  Last RMS-Density change    ...    1.5684e-07  Tolerance :   5.0000e-09
  Last Orbital Gradient      ...    1.4468e-06  Tolerance :   1.0000e-05
  Last Orbital Rotation      ...    5.6011e-06  Tolerance :   1.0000e-05

             **** THE GBW FILE WAS UPDATED (069000867.gbw) ****
             **** DENSITY FILE WAS UPDATED (069000867.scfp) ****
             **** ENERGY FILE WAS UPDATED (069000867.en.tmp) ****
             **** THE GBW FILE WAS UPDATED (069000867.gbw) ****
             **** DENSITY FILE WAS UPDATED (069000867.scfp) ****
----------------
ORBITAL ENERGIES
----------------

  NO   OCC          E(Eh)            E(eV) 
   0   2.0000     -19.244669      -523.6741 
   1   2.0000     -19.195724      -522.3422 
   2   2.0000     -14.445740      -393.0886 
   3   2.0000     -10.373796      -282.2853 
   4   2.0000     -10.340493      -281.3791 
   5   2.0000     -10.334947      -281.2282 
   6   2.0000     -10.324464      -280.9430 
   7   2.0000     -10.319188      -280.7994 
   8   2.0000     -10.295080      -280.1434 
   9   2.0000     -10.290087      -280.0075 
  10   2.0000     -10.289930      -280.0032 
  11   2.0000     -10.289259      -279.9850 
  12   2.0000     -10.288863      -279.9742 
  13   2.0000     -10.288433      -279.9625 
  14   2.0000     -10.286401      -279.9072 
  15   2.0000     -10.283292      -279.8226 
  16   2.0000     -10.280223      -279.7391 
  17   2.0000      -1.148637       -31.2560 
  18   2.0000      -1.137429       -30.9510 
  19   2.0000      -1.068008       -29.0620 
  20   2.0000      -0.976233       -26.5646 
  21   2.0000      -0.930138       -25.3103 
  22   2.0000      -0.891097       -24.2480 
  23   2.0000      -0.864818       -23.5329 
  24   2.0000      -0.856971       -23.3194 
  25   2.0000      -0.814634       -22.1673 
  26   2.0000      -0.787393       -21.4261 
  27   2.0000      -0.763049       -20.7636 
  28   2.0000      -0.742209       -20.1965 
  29   2.0000      -0.716930       -19.5087 
  30   2.0000      -0.693649       -18.8752 
  31   2.0000      -0.683929       -18.6106 
  32   2.0000      -0.634408       -17.2631 
  33   2.0000      -0.620500       -16.8847 
  34   2.0000      -0.615202       -16.7405 
  35   2.0000      -0.600799       -16.3486 
  36   2.0000      -0.594196       -16.1689 
  37   2.0000      -0.572832       -15.5876 
  38   2.0000      -0.560240       -15.2449 
  39   2.0000      -0.549378       -14.9493 
  40   2.0000      -0.547426       -14.8962 
  41   2.0000      -0.541091       -14.7238 
  42   2.0000      -0.532363       -14.4863 
  43   2.0000      -0.519164       -14.1272 
  44   2.0000      -0.514137       -13.9904 
  45   2.0000      -0.502814       -13.6823 
  46   2.0000      -0.492412       -13.3992 
  47   2.0000      -0.483981       -13.1698 
  48   2.0000      -0.478058       -13.0086 
  49   2.0000      -0.473764       -12.8918 
  50   2.0000      -0.465546       -12.6681 
  51   2.0000      -0.460406       -12.5283 
  52   2.0000      -0.454449       -12.3662 
  53   2.0000      -0.444627       -12.0989 
  54   2.0000      -0.440796       -11.9947 
  55   2.0000      -0.434975       -11.8363 
  56   2.0000      -0.427724       -11.6390 
  57   2.0000      -0.406779       -11.0690 
  58   2.0000      -0.361935        -9.8488 
  59   2.0000      -0.342409        -9.3174 
  60   2.0000      -0.338415        -9.2087 
  61   2.0000      -0.332854        -9.0574 
  62   2.0000      -0.319523        -8.6947 
  63   0.0000       0.068037         1.8514 
  64   0.0000       0.070479         1.9178 
  65   0.0000       0.123563         3.3623 
  66   0.0000       0.142000         3.8640 
  67   0.0000       0.154329         4.1995 
  68   0.0000       0.157226         4.2783 
  69   0.0000       0.166441         4.5291 
  70   0.0000       0.173538         4.7222 
  71   0.0000       0.187729         5.1084 
  72   0.0000       0.194286         5.2868 
  73   0.0000       0.196423         5.3449 
  74   0.0000       0.200588         5.4583 
  75   0.0000       0.210065         5.7162 
  76   0.0000       0.213458         5.8085 
  77   0.0000       0.219099         5.9620 
  78   0.0000       0.227956         6.2030 
  79   0.0000       0.232984         6.3398 
  80   0.0000       0.237418         6.4605 
  81   0.0000       0.239974         6.5300 
  82   0.0000       0.248431         6.7602 
  83   0.0000       0.252394         6.8680 
  84   0.0000       0.263752         7.1771 
  85   0.0000       0.269626         7.3369 
  86   0.0000       0.275524         7.4974 
  87   0.0000       0.284836         7.7508 
  88   0.0000       0.295202         8.0329 
  89   0.0000       0.302849         8.2409 
  90   0.0000       0.306284         8.3344 
  91   0.0000       0.318980         8.6799 
  92   0.0000       0.339478         9.2377 
  93   0.0000       0.347947         9.4681 
  94   0.0000       0.351174         9.5559 
  95   0.0000       0.365524         9.9464 
  96   0.0000       0.385381        10.4867 
  97   0.0000       0.396691        10.7945 
  98   0.0000       0.407157        11.0793 
  99   0.0000       0.415818        11.3150 
 100   0.0000       0.432626        11.7723 
 101   0.0000       0.456088        12.4108 
 102   0.0000       0.472728        12.8636 
 103   0.0000       0.482310        13.1243 
 104   0.0000       0.490564        13.3489 
 105   0.0000       0.509653        13.8684 
 106   0.0000       0.516386        14.0516 
 107   0.0000       0.520834        14.1726 
 108   0.0000       0.531670        14.4675 
 109   0.0000       0.540482        14.7073 
 110   0.0000       0.546168        14.8620 
 111   0.0000       0.549625        14.9560 
 112   0.0000       0.555330        15.1113 
 113   0.0000       0.571567        15.5531 
 114   0.0000       0.581510        15.8237 
 115   0.0000       0.589963        16.0537 
 116   0.0000       0.598116        16.2756 
 117   0.0000       0.607300        16.5255 
 118   0.0000       0.617821        16.8118 
 119   0.0000       0.629937        17.1414 
 120   0.0000       0.640009        17.4155 
 121   0.0000       0.652197        17.7472 
 122   0.0000       0.656272        17.8581 
 123   0.0000       0.664258        18.0754 
 124   0.0000       0.682082        18.5604 
 125   0.0000       0.686713        18.6864 
 126   0.0000       0.689349        18.7581 
 127   0.0000       0.704920        19.1819 
 128   0.0000       0.709747        19.3132 
 129   0.0000       0.717824        19.5330 
 130   0.0000       0.721296        19.6274 
 131   0.0000       0.731079        19.8937 
 132   0.0000       0.736108        20.0305 
 133   0.0000       0.746164        20.3042 
 134   0.0000       0.746356        20.3094 
 135   0.0000       0.749006        20.3815 
 136   0.0000       0.752684        20.4816 
 137   0.0000       0.762581        20.7509 
 138   0.0000       0.764300        20.7977 
 139   0.0000       0.767353        20.8807 
 140   0.0000       0.773275        21.0419 
 141   0.0000       0.773850        21.0575 
 142   0.0000       0.782788        21.3007 
 143   0.0000       0.785473        21.3738 
 144   0.0000       0.789622        21.4867 
 145   0.0000       0.792498        21.5650 
 146   0.0000       0.799798        21.7636 
 147   0.0000       0.807579        21.9753 
 148   0.0000       0.808212        21.9926 
 149   0.0000       0.817721        22.2513 
 150   0.0000       0.819548        22.3010 
 151   0.0000       0.822098        22.3704 
 152   0.0000       0.836391        22.7594 
 153   0.0000       0.844273        22.9738 
 154   0.0000       0.849919        23.1275 
 155   0.0000       0.856623        23.3099 
 156   0.0000       0.859241        23.3811 
 157   0.0000       0.864750        23.5311 
 158   0.0000       0.871841        23.7240 
 159   0.0000       0.883177        24.0325 
 160   0.0000       0.923233        25.1225 
 161   0.0000       0.929219        25.2853 
 162   0.0000       0.935007        25.4428 
 163   0.0000       0.952641        25.9227 
 164   0.0000       0.964486        26.2450 
 165   0.0000       0.993567        27.0363 
 166   0.0000       0.998123        27.1603 
 167   0.0000       1.001799        27.2603 
 168   0.0000       1.039002        28.2727 
 169   0.0000       1.053479        28.6666 
 170   0.0000       1.076343        29.2888 
 171   0.0000       1.085694        29.5432 
 172   0.0000       1.134990        30.8846 
 173   0.0000       1.142741        31.0956 
 174   0.0000       1.156643        31.4739 
 175   0.0000       1.163975        31.6734 
 176   0.0000       1.184495        32.2318 
 177   0.0000       1.214565        33.0500 
 178   0.0000       1.225119        33.3372 
 179   0.0000       1.250720        34.0338 
 180   0.0000       1.269399        34.5421 
 181   0.0000       1.295069        35.2406 
 182   0.0000       1.304503        35.4973 
 183   0.0000       1.326017        36.0827 
 184   0.0000       1.333749        36.2931 
 185   0.0000       1.343801        36.5667 
 186   0.0000       1.349399        36.7190 
 187   0.0000       1.355942        36.8971 
 188   0.0000       1.369843        37.2753 
 189   0.0000       1.386292        37.7229 
 190   0.0000       1.403124        38.1809 
 191   0.0000       1.412708        38.4417 
 192   0.0000       1.413125        38.4531 
 193   0.0000       1.424062        38.7507 
 194   0.0000       1.441120        39.2149 
 195   0.0000       1.457884        39.6710 
 196   0.0000       1.480046        40.2741 
 197   0.0000       1.538862        41.8746 
 198   0.0000       1.545199        42.0470 
 199   0.0000       1.570647        42.7395 
 200   0.0000       1.578691        42.9584 
 201   0.0000       1.615552        43.9614 
 202   0.0000       1.632929        44.4343 
 203   0.0000       1.634316        44.4720 
 204   0.0000       1.647733        44.8371 
 205   0.0000       1.673430        45.5363 
 206   0.0000       1.704946        46.3939 
 207   0.0000       1.714799        46.6621 
 208   0.0000       1.728032        47.0222 
 209   0.0000       1.745522        47.4981 
 210   0.0000       1.769971        48.1634 
 211   0.0000       1.773228        48.2520 
 212   0.0000       1.785369        48.5824 
 213   0.0000       1.791140        48.7394 
 214   0.0000       1.797462        48.9114 
 215   0.0000       1.810982        49.2793 
 216   0.0000       1.828570        49.7579 
 217   0.0000       1.839403        50.0527 
 218   0.0000       1.844798        50.1995 
 219   0.0000       1.854674        50.4682 
 220   0.0000       1.861482        50.6535 
 221   0.0000       1.862914        50.6925 
 222   0.0000       1.870749        50.9057 
 223   0.0000       1.874995        51.0212 
 224   0.0000       1.883085        51.2414 
 225   0.0000       1.886633        51.3379 
 226   0.0000       1.891247        51.4634 
 227   0.0000       1.900079        51.7038 
 228   0.0000       1.902000        51.7561 
 229   0.0000       1.907536        51.9067 
 230   0.0000       1.911695        52.0199 
 231   0.0000       1.920454        52.2582 
 232   0.0000       1.927442        52.4484 
 233   0.0000       1.935023        52.6547 
 234   0.0000       1.944401        52.9098 
 235   0.0000       1.945794        52.9477 
 236   0.0000       1.948674        53.0261 
 237   0.0000       1.960426        53.3459 
 238   0.0000       1.979373        53.8615 
 239   0.0000       1.984696        54.0063 
 240   0.0000       1.996247        54.3206 
 241   0.0000       2.010381        54.7052 
 242   0.0000       2.028960        55.2108 
 243   0.0000       2.049732        55.7761 
 244   0.0000       2.051805        55.8324 
 245   0.0000       2.059936        56.0537 
 246   0.0000       2.067806        56.2679 
 247   0.0000       2.077470        56.5308 
 248   0.0000       2.081917        56.6518 
 249   0.0000       2.092668        56.9444 
 250   0.0000       2.103745        57.2458 
 251   0.0000       2.105231        57.2862 
 252   0.0000       2.112794        57.4921 
 253   0.0000       2.129538        57.9477 
 254   0.0000       2.135403        58.1073 
 255   0.0000       2.160081        58.7788 
 256   0.0000       2.188766        59.5594 
 257   0.0000       2.219425        60.3936 
 258   0.0000       2.221374        60.4467 
 259   0.0000       2.234746        60.8105 
 260   0.0000       2.239944        60.9520 
 261   0.0000       2.246600        61.1331 
 262   0.0000       2.254979        61.3611 
 263   0.0000       2.272512        61.8382 
 264   0.0000       2.282055        62.0979 
 265   0.0000       2.302446        62.6527 
 266   0.0000       2.305735        62.7422 
 267   0.0000       2.341218        63.7078 
 268   0.0000       2.352214        64.0070 
 269   0.0000       2.375607        64.6435 
 270   0.0000       2.391086        65.0648 
 271   0.0000       2.408600        65.5413 
 272   0.0000       2.421440        65.8907 
 273   0.0000       2.427457        66.0545 
 274   0.0000       2.453676        66.7679 
 275   0.0000       2.464633        67.0661 
 276   0.0000       2.477235        67.4090 
 277   0.0000       2.477884        67.4266 
 278   0.0000       2.505174        68.1692 
 279   0.0000       2.512034        68.3559 
 280   0.0000       2.532334        68.9083 
 281   0.0000       2.547957        69.3334 
 282   0.0000       2.562062        69.7172 
 283   0.0000       2.581632        70.2498 
 284   0.0000       2.589121        70.4536 
 285   0.0000       2.607875        70.9639 
 286   0.0000       2.642525        71.9068 
 287   0.0000       2.666262        72.5527 
 288   0.0000       2.686534        73.1043 
 289   0.0000       2.691354        73.2355 
 290   0.0000       2.700286        73.4785 
 291   0.0000       2.736583        74.4662 
 292   0.0000       2.745149        74.6993 
 293   0.0000       2.755251        74.9742 
 294   0.0000       2.770642        75.3930 
 295   0.0000       2.775307        75.5199 
 296   0.0000       2.797955        76.1362 
 297   0.0000       2.824126        76.8484 
 298   0.0000       2.853178        77.6389 
 299   0.0000       2.860305        77.8329 
 300   0.0000       2.863977        77.9328 
 301   0.0000       2.871068        78.1257 
 302   0.0000       2.883059        78.4520 
 303   0.0000       2.895990        78.8039 
 304   0.0000       2.935351        79.8750 
 305   0.0000       2.936382        79.9030 
 306   0.0000       2.947838        80.2147 
 307   0.0000       2.976902        81.0056 
 308   0.0000       2.989104        81.3376 
 309   0.0000       3.006690        81.8162 
 310   0.0000       3.013256        81.9949 
 311   0.0000       3.023818        82.2823 
 312   0.0000       3.034770        82.5803 
 313   0.0000       3.060685        83.2855 
 314   0.0000       3.071275        83.5736 
 315   0.0000       3.082979        83.8921 
 316   0.0000       3.095766        84.2401 
 317   0.0000       3.133038        85.2543 
 318   0.0000       3.146291        85.6149 
 319   0.0000       3.157810        85.9284 
 320   0.0000       3.176183        86.4283 
 321   0.0000       3.218938        87.5917 
 322   0.0000       3.234551        88.0166 
 323   0.0000       3.268813        88.9489 
 324   0.0000       3.275793        89.1389 
 325   0.0000       3.372311        91.7652 
 326   0.0000       3.382086        92.0312 
 327   0.0000       3.423353        93.1542 
 328   0.0000       3.455680        94.0338 
 329   0.0000       3.653570        99.4187 
 330   0.0000       3.659654        99.5843 
 331   0.0000       3.785573       103.0107 
 332   0.0000       3.832581       104.2898 

                    ********************************
                    * MULLIKEN POPULATION ANALYSIS *
                    ********************************

-----------------------
MULLIKEN ATOMIC CHARGES
-----------------------
   0 C :    0.013349
   1 H :    0.029508
   2 H :    0.031245
   3 H :    0.027815
   4 C :    0.036606
   5 C :   -0.008431
   6 H :    0.028704
   7 H :    0.033395
   8 C :    0.132915
   9 N :   -0.377537
  10 C :    0.161305
  11 O :   -0.260516
  12 C :   -0.103996
  13 H :    0.069318
  14 H :    0.059163
  15 C :    0.167112
  16 H :    0.037749
  17 H :    0.026399
  18 H :    0.047491
  19 H :    0.032465
  20 O :   -0.417717
  21 C :    0.300081
  22 C :   -0.144157
  23 C :   -0.020187
  24 C :   -0.010182
  25 C :   -0.007922
  26 C :   -0.009462
  27 C :   -0.006427
  28 H :    0.006658
  29 H :    0.010895
  30 H :    0.010254
  31 H :    0.013082
  32 H :    0.009813
  33 H :    0.031659
  34 H :    0.028726
  35 H :    0.020828
Sum of atomic charges:    0.0000000

--------------------------------
MULLIKEN REDUCED ORBITAL CHARGES
--------------------------------
  0 C s       :     2.975120  s :     2.975120
      pz      :     1.019099  p :     2.984804
      px      :     0.998159
      py      :     0.967547
      dz2     :     0.005322  d :     0.026727
      dxz     :     0.004141
      dyz     :     0.006545
      dx2y2   :     0.007076
      dxy     :     0.003642
  1 H s       :     0.946378  s :     0.946378
      pz      :     0.005979  p :     0.024113
      px      :     0.013579
      py      :     0.004556
  2 H s       :     0.945022  s :     0.945022
      pz      :     0.013022  p :     0.023732
      px      :     0.005225
      py      :     0.005486
  3 H s       :     0.947878  s :     0.947878
      pz      :     0.008970  p :     0.024307
      px      :     0.008886
      py      :     0.006451
  4 C s       :     3.100158  s :     3.100158
      pz      :     1.008097  p :     2.792406
      px      :     0.763817
      py      :     1.020493
      dz2     :     0.012686  d :     0.070830
      dxz     :     0.013128
      dyz     :     0.008877
      dx2y2   :     0.019680
      dxy     :     0.016458
  5 C s       :     3.013069  s :     3.013069
      pz      :     1.019887  p :     2.961895
      px      :     0.972501
      py      :     0.969507
      dz2     :     0.008424  d :     0.033466
      dxz     :     0.005315
      dyz     :     0.005735
      dx2y2   :     0.007736
      dxy     :     0.006258
  6 H s       :     0.948766  s :     0.948766
      pz      :     0.004504  p :     0.022529
      px      :     0.012572
      py      :     0.005453
  7 H s       :     0.944131  s :     0.944131
      pz      :     0.012329  p :     0.022473
      px      :     0.006187
      py      :     0.003957
  8 C s       :     2.983415  s :     2.983415
      pz      :     1.027797  p :     2.833962
      px      :     0.877882
      py      :     0.928284
      dz2     :     0.008386  d :     0.049708
      dxz     :     0.007741
      dyz     :     0.006041
      dx2y2   :     0.013611
      dxy     :     0.013930
  9 N s       :     3.441973  s :     3.441973
      pz      :     1.161238  p :     3.905314
      px      :     1.195619
      py      :     1.548457
      dz2     :     0.005769  d :     0.030250
      dxz     :     0.009984
      dyz     :     0.003841
      dx2y2   :     0.005246
      dxy     :     0.005410
 10 C s       :     3.072988  s :     3.072988
      pz      :     0.874742  p :     2.634115
      px      :     0.925904
      py      :     0.833469
      dz2     :     0.028831  d :     0.131592
      dxz     :     0.053198
      dyz     :     0.037812
      dx2y2   :     0.006146
      dxy     :     0.005606
 11 O s       :     3.716645  s :     3.716645
      pz      :     1.334001  p :     4.525213
      px      :     1.686835
      py      :     1.504377
      dz2     :     0.008365  d :     0.018658
      dxz     :     0.004603
      dyz     :     0.005553
      dx2y2   :     0.000063
      dxy     :     0.000074
 12 C s       :     3.021477  s :     3.021477
      pz      :     0.930515  p :     3.050449
      px      :     1.076562
      py      :     1.043373
      dz2     :     0.005203  d :     0.032069
      dxz     :     0.009418
      dyz     :     0.004178
      dx2y2   :     0.007362
      dxy     :     0.005908
 13 H s       :     0.906561  s :     0.906561
      pz      :     0.004046  p :     0.024120
      px      :     0.012816
      py      :     0.007258
 14 H s       :     0.917807  s :     0.917807
      pz      :     0.004087  p :     0.023030
      px      :     0.004324
      py      :     0.014619
 15 C s       :     2.956060  s :     2.956060
      pz      :     0.936715  p :     2.825257
      px      :     0.882741
      py      :     1.005801
      dz2     :     0.007173  d :     0.051571
      dxz     :     0.016071
      dyz     :     0.014924
      dx2y2   :     0.006608
      dxy     :     0.006796
 16 H s       :     0.940063  s :     0.940063
      pz      :     0.005391  p :     0.022188
      px      :     0.004835
      py      :     0.011962
 17 H s       :     0.952170  s :     0.952170
      pz      :     0.008044  p :     0.021431
      px      :     0.004347
      py      :     0.009040
 18 H s       :     0.930661  s :     0.930661
      pz      :     0.013132  p :     0.021848
      px      :     0.004831
      py      :     0.003884
 19 H s       :     0.946194  s :     0.946194
      pz      :     0.009282  p :     0.021341
      px      :     0.006447
      py      :     0.005612
 20 O s       :     3.776742  s :     3.776742
      pz      :     1.555768  p :     4.625409
      px      :     1.226039
      py      :     1.843602
      dz2     :     0.003214  d :     0.015565
      dxz     :     0.005803
      dyz     :     0.001808
      dx2y2   :     0.002510
      dxy     :     0.002229
 21 C s       :     2.907506  s :     2.907506
      pz      :     0.857559  p :     2.729664
      px      :     0.845859
      py      :     1.026246
      dz2     :     0.010948  d :     0.062749
      dxz     :     0.017660
      dyz     :     0.012223
      dx2y2   :     0.012991
      dxy     :     0.008927
 22 C s       :     3.069847  s :     3.069847
      pz      :     1.013072  p :     3.031322
      px      :     1.019199
      py      :     0.999050
      dz2     :     0.010055  d :     0.042988
      dxz     :     0.011643
      dyz     :     0.007773
      dx2y2   :     0.006811
      dxy     :     0.006706
 23 C s       :     3.196685  s :     3.196685
      pz      :     0.877779  p :     2.787999
      px      :     0.930117
      py      :     0.980104
      dz2     :     0.008335  d :     0.035503
      dxz     :     0.009469
      dyz     :     0.004424
      dx2y2   :     0.006780
      dxy     :     0.006495
 24 C s       :     3.146913  s :     3.146913
      pz      :     0.931864  p :     2.826952
      px      :     0.938791
      py      :     0.956297
      dz2     :     0.008423  d :     0.036317
      dxz     :     0.010940
      dyz     :     0.006707
      dx2y2   :     0.004661
      dxy     :     0.005587
 25 C s       :     3.144781  s :     3.144781
      pz      :     0.955868  p :     2.827023
      px      :     0.895738
      py      :     0.975417
      dz2     :     0.009776  d :     0.036118
      dxz     :     0.010015
      dyz     :     0.007261
      dx2y2   :     0.004758
      dxy     :     0.004308
 26 C s       :     3.148900  s :     3.148900
      pz      :     0.885480  p :     2.824093
      px      :     0.961513
      py      :     0.977100
      dz2     :     0.008896  d :     0.036469
      dxz     :     0.009490
      dyz     :     0.004524
      dx2y2   :     0.006990
      dxy     :     0.006568
 27 C s       :     3.200772  s :     3.200772
      pz      :     0.947022  p :     2.770353
      px      :     0.882207
      py      :     0.941124
      dz2     :     0.008422  d :     0.035301
      dxz     :     0.010488
      dyz     :     0.006256
      dx2y2   :     0.004615
      dxy     :     0.005521
 28 H s       :     0.969278  s :     0.969278
      pz      :     0.007699  p :     0.024064
      px      :     0.009053
      py      :     0.007313
 29 H s       :     0.965754  s :     0.965754
      pz      :     0.014164  p :     0.023352
      px      :     0.004472
      py      :     0.004715
 30 H s       :     0.966182  s :     0.966182
      pz      :     0.004812  p :     0.023564
      px      :     0.013131
      py      :     0.005620
 31 H s       :     0.963365  s :     0.963365
      pz      :     0.007959  p :     0.023553
      px      :     0.008078
      py      :     0.007515
 32 H s       :     0.966615  s :     0.966615
      pz      :     0.014248  p :     0.023572
      px      :     0.004514
      py      :     0.004809
 33 H s       :     0.946255  s :     0.946255
      pz      :     0.010076  p :     0.022086
      px      :     0.003627
      py      :     0.008383
 34 H s       :     0.949867  s :     0.949867
      pz      :     0.004411  p :     0.021406
      px      :     0.003456
      py      :     0.013539
 35 H s       :     0.959075  s :     0.959075
      pz      :     0.012791  p :     0.020098
      px      :     0.002280
      py      :     0.005026


                     *******************************
                     * LOEWDIN POPULATION ANALYSIS *
                     *******************************

----------------------
LOEWDIN ATOMIC CHARGES
----------------------
   0 C :   -0.066947
   1 H :    0.028428
   2 H :    0.028075
   3 H :    0.024606
   4 C :    0.062441
   5 C :   -0.049304
   6 H :    0.030018
   7 H :    0.028284
   8 C :    0.033046
   9 N :   -0.052183
  10 C :    0.059982
  11 O :   -0.224223
  12 C :   -0.051170
  13 H :    0.040363
  14 H :    0.037559
  15 C :    0.054499
  16 H :    0.015998
  17 H :    0.013749
  18 H :    0.034918
  19 H :    0.024495
  20 O :   -0.166204
  21 C :    0.082026
  22 C :   -0.042149
  23 C :   -0.026661
  24 C :   -0.027844
  25 C :   -0.033579
  26 C :   -0.028372
  27 C :   -0.023919
  28 H :    0.027920
  29 H :    0.029070
  30 H :    0.028277
  31 H :    0.030169
  32 H :    0.031681
  33 H :    0.018493
  34 H :    0.015725
  35 H :    0.012736

-------------------------------
LOEWDIN REDUCED ORBITAL CHARGES
-------------------------------
  0 C s       :     2.835717  s :     2.835717
      pz      :     1.069908  p :     3.160419
      px      :     1.061834
      py      :     1.028677
      dz2     :     0.014628  d :     0.070812
      dxz     :     0.010905
      dyz     :     0.015407
      dx2y2   :     0.020239
      dxy     :     0.009633
  1 H s       :     0.904012  s :     0.904012
      pz      :     0.015493  p :     0.067560
      px      :     0.037395
      py      :     0.014672
  2 H s       :     0.904496  s :     0.904496
      pz      :     0.036201  p :     0.067429
      px      :     0.013319
      py      :     0.017909
  3 H s       :     0.907590  s :     0.907590
      pz      :     0.023918  p :     0.067804
      px      :     0.023505
      py      :     0.020381
  4 C s       :     2.845605  s :     2.845605
      pz      :     1.049497  p :     2.933569
      px      :     0.842364
      py      :     1.041708
      dz2     :     0.029708  d :     0.158386
      dxz     :     0.030484
      dyz     :     0.019598
      dx2y2   :     0.043861
      dxy     :     0.034734
  5 C s       :     2.842688  s :     2.842688
      pz      :     1.052693  p :     3.121578
      px      :     1.049615
      py      :     1.019270
      dz2     :     0.020557  d :     0.085038
      dxz     :     0.014517
      dyz     :     0.013354
      dx2y2   :     0.020777
      dxy     :     0.015834
  6 H s       :     0.902300  s :     0.902300
      pz      :     0.013523  p :     0.067683
      px      :     0.036119
      py      :     0.018041
  7 H s       :     0.903027  s :     0.903027
      pz      :     0.037056  p :     0.068690
      px      :     0.017153
      py      :     0.014481
  8 C s       :     2.824459  s :     2.824459
      pz      :     1.076403  p :     3.021166
      px      :     0.937553
      py      :     1.007209
      dz2     :     0.021281  d :     0.121329
      dxz     :     0.020647
      dyz     :     0.013152
      dx2y2   :     0.034779
      dxy     :     0.031470
  9 N s       :     3.075588  s :     3.075588
      pz      :     1.190642  p :     3.905872
      px      :     1.227171
      py      :     1.488060
      dz2     :     0.013430  d :     0.070723
      dxz     :     0.026182
      dyz     :     0.008695
      dx2y2   :     0.010498
      dxy     :     0.011919
 10 C s       :     2.830981  s :     2.830981
      pz      :     1.018859  p :     2.808798
      px      :     0.951849
      py      :     0.838090
      dz2     :     0.070266  d :     0.300238
      dxz     :     0.129140
      dyz     :     0.078333
      dx2y2   :     0.011619
      dxy     :     0.010880
 11 O s       :     3.533929  s :     3.533929
      pz      :     1.465846  p :     4.658801
      px      :     1.690705
      py      :     1.502250
      dz2     :     0.017261  d :     0.031493
      dxz     :     0.007052
      dyz     :     0.006998
      dx2y2   :     0.000087
      dxy     :     0.000095
 12 C s       :     2.850743  s :     2.850743
      pz      :     1.004891  p :     3.117349
      px      :     1.044380
      py      :     1.068077
      dz2     :     0.013467  d :     0.083077
      dxz     :     0.025959
      dyz     :     0.009769
      dx2y2   :     0.019227
      dxy     :     0.014654
 13 H s       :     0.886551  s :     0.886551
      pz      :     0.013920  p :     0.073087
      px      :     0.037963
      py      :     0.021204
 14 H s       :     0.891724  s :     0.891724
      pz      :     0.013754  p :     0.070718
      px      :     0.015493
      py      :     0.041471
 15 C s       :     2.831123  s :     2.831123
      pz      :     0.974019  p :     2.992812
      px      :     0.955187
      py      :     1.063606
      dz2     :     0.012548  d :     0.121565
      dxz     :     0.040916
      dyz     :     0.037968
      dx2y2   :     0.014260
      dxy     :     0.015874
 16 H s       :     0.915478  s :     0.915478
      pz      :     0.018018  p :     0.068524
      px      :     0.016387
      py      :     0.034118
 17 H s       :     0.919881  s :     0.919881
      pz      :     0.025025  p :     0.066371
      px      :     0.014476
      py      :     0.026869
 18 H s       :     0.898832  s :     0.898832
      pz      :     0.037738  p :     0.066250
      px      :     0.015641
      py      :     0.012872
 19 H s       :     0.910500  s :     0.910500
      pz      :     0.026139  p :     0.065005
      px      :     0.020861
      py      :     0.018005
 20 O s       :     3.455600  s :     3.455600
      pz      :     1.590485  p :     4.681948
      px      :     1.264650
      py      :     1.826812
      dz2     :     0.005275  d :     0.028656
      dxz     :     0.011071
      dyz     :     0.002350
      dx2y2   :     0.005688
      dxy     :     0.004273
 21 C s       :     2.832846  s :     2.832846
      pz      :     0.937319  p :     2.939996
      px      :     0.930326
      py      :     1.072352
      dz2     :     0.025093  d :     0.145131
      dxz     :     0.040470
      dyz     :     0.030159
      dx2y2   :     0.030378
      dxy     :     0.019032
 22 C s       :     2.851615  s :     2.851615
      pz      :     1.072425  p :     3.082241
      px      :     1.026660
      py      :     0.983156
      dz2     :     0.028075  d :     0.108293
      dxz     :     0.031090
      dyz     :     0.018981
      dx2y2   :     0.015117
      dxy     :     0.015030
 23 C s       :     2.850519  s :     2.850519
      pz      :     1.039105  p :     3.082626
      px      :     1.047476
      py      :     0.996045
[...]
      pz      :     0.946240  p :     2.775733
      px      :     0.894491
      py      :     0.935002
      dz2     :     0.007833  d :     0.034495
      dxz     :     0.009591
      dyz     :     0.006196
      dx2y2   :     0.004932
      dxy     :     0.005943
 28 H s       :     0.966245  s :     0.966245
      pz      :     0.007444  p :     0.023331
      px      :     0.007839
      py      :     0.008048
 29 H s       :     0.960707  s :     0.960707
      pz      :     0.013375  p :     0.022948
      px      :     0.004734
      py      :     0.004838
 30 H s       :     0.959505  s :     0.959505
      pz      :     0.004630  p :     0.022931
      px      :     0.012889
      py      :     0.005411
 31 H s       :     0.957189  s :     0.957189
      pz      :     0.007459  p :     0.022999
      px      :     0.006997
      py      :     0.008543
 32 H s       :     0.955173  s :     0.955173
      pz      :     0.013012  p :     0.023203
      px      :     0.005095
      py      :     0.005096
 33 H s       :     0.945379  s :     0.945379
      pz      :     0.010367  p :     0.021938
      px      :     0.003429
      py      :     0.008142
 34 H s       :     0.955690  s :     0.955690
      pz      :     0.004091  p :     0.021094
      px      :     0.003294
      py      :     0.013709
 35 H s       :     0.965738  s :     0.965738
      pz      :     0.013754  p :     0.019741
      px      :     0.002293
      py      :     0.003694


                     *******************************
                     * LOEWDIN POPULATION ANALYSIS *
                     *******************************

----------------------
LOEWDIN ATOMIC CHARGES
----------------------
   0 C :   -0.070486
   1 H :    0.029139
   2 H :    0.029517
   3 H :    0.027366
   4 C :    0.058173
   5 C :   -0.054631
   6 H :    0.033778
   7 H :    0.028791
   8 C :    0.031067
   9 N :   -0.065636
  10 C :    0.070798
  11 O :   -0.219855
  12 C :   -0.054625
  13 H :    0.044613
  14 H :    0.040212
  15 C :    0.052144
  16 H :    0.018587
  17 H :    0.015058
  18 H :    0.036804
  19 H :    0.025946
  20 O :   -0.165505
  21 C :    0.080235
  22 C :   -0.044224
  23 C :   -0.022009
  24 C :   -0.032092
  25 C :   -0.036353
  26 C :   -0.034414
  27 C :   -0.024764
  28 H :    0.030038
  29 H :    0.030519
  30 H :    0.030593
  31 H :    0.032302
  32 H :    0.035519
  33 H :    0.017504
  34 H :    0.012883
  35 H :    0.013006

-------------------------------
LOEWDIN REDUCED ORBITAL CHARGES
-------------------------------
  0 C s       :     2.844427  s :     2.844427
      pz      :     1.068349  p :     3.156365
      px      :     1.061032
      py      :     1.026984
      dz2     :     0.018394  d :     0.069694
      dxz     :     0.008351
      dyz     :     0.012033
      dx2y2   :     0.018523
      dxy     :     0.012393
  1 H s       :     0.905421  s :     0.905421
      pz      :     0.014218  p :     0.065440
      px      :     0.035968
      py      :     0.015254
  2 H s       :     0.905236  s :     0.905236
      pz      :     0.038540  p :     0.065247
      px      :     0.012768
      py      :     0.013939
  3 H s       :     0.906807  s :     0.906807
      pz      :     0.020188  p :     0.065827
      px      :     0.023883
      py      :     0.021756
  4 C s       :     2.845418  s :     2.845418
      pz      :     1.053235  p :     2.935309
      px      :     0.849727
      py      :     1.032347
      dz2     :     0.034438  d :     0.161100
      dxz     :     0.027436
      dyz     :     0.015400
      dx2y2   :     0.045195
      dxy     :     0.038631
  5 C s       :     2.846492  s :     2.846492
      pz      :     1.055917  p :     3.122698
      px      :     1.047021
      py      :     1.019759
      dz2     :     0.023627  d :     0.085441
      dxz     :     0.009816
      dyz     :     0.013967
      dx2y2   :     0.021263
      dxy     :     0.016768
  6 H s       :     0.900504  s :     0.900504
      pz      :     0.013278  p :     0.065718
      px      :     0.036253
      py      :     0.016187
  7 H s       :     0.904948  s :     0.904948
      pz      :     0.038742  p :     0.066261
      px      :     0.014331
      py      :     0.013189
  8 C s       :     2.827221  s :     2.827221
      pz      :     1.074443  p :     3.022067
      px      :     0.943086
      py      :     1.004538
      dz2     :     0.025002  d :     0.119646
      dxz     :     0.014622
      dyz     :     0.011812
      dx2y2   :     0.034563
      dxy     :     0.033646
  9 N s       :     3.087246  s :     3.087246
      pz      :     1.180593  p :     3.909982
      px      :     1.225402
      py      :     1.503986
      dz2     :     0.013056  d :     0.068408
      dxz     :     0.026234
      dyz     :     0.006992
      dx2y2   :     0.010894
      dxy     :     0.011232
 10 C s       :     2.838681  s :     2.838681
      pz      :     1.022265  p :     2.797909
      px      :     0.950789
      py      :     0.824854
      dz2     :     0.065976  d :     0.292612
      dxz     :     0.130370
      dyz     :     0.067144
      dx2y2   :     0.013600
      dxy     :     0.015521
 11 O s       :     3.534722  s :     3.534722
      pz      :     1.462265  p :     4.653947
      px      :     1.710173
      py      :     1.481509
      dz2     :     0.017188  d :     0.031186
      dxz     :     0.006591
      dyz     :     0.007193
      dx2y2   :     0.000099
      dxy     :     0.000114
 12 C s       :     2.859822  s :     2.859822
      pz      :     1.009035  p :     3.113736
      px      :     1.034599
      py      :     1.070102
      dz2     :     0.013888  d :     0.081067
      dxz     :     0.026066
      dyz     :     0.008014
      dx2y2   :     0.017145
      dxy     :     0.015953
 13 H s       :     0.884840  s :     0.884840
      pz      :     0.012994  p :     0.070547
      px      :     0.035334
      py      :     0.022219
 14 H s       :     0.891256  s :     0.891256
      pz      :     0.013327  p :     0.068532
      px      :     0.014944
      py      :     0.040261
 15 C s       :     2.839750  s :     2.839750
      pz      :     0.951144  p :     2.989560
      px      :     0.968334
      py      :     1.070083
      dz2     :     0.014653  d :     0.118546
      dxz     :     0.039609
      dyz     :     0.037962
      dx2y2   :     0.014072
      dxy     :     0.012250
 16 H s       :     0.914743  s :     0.914743
      pz      :     0.017895  p :     0.066670
      px      :     0.013722
      py      :     0.035053
 17 H s       :     0.920050  s :     0.920050
      pz      :     0.022953  p :     0.064891
      px      :     0.015034
      py      :     0.026905
 18 H s       :     0.897999  s :     0.897999
      pz      :     0.041679  p :     0.065196
      px      :     0.011599
      py      :     0.011918
 19 H s       :     0.910095  s :     0.910095
      pz      :     0.019508  p :     0.063960
      px      :     0.026460
      py      :     0.017992
 20 O s       :     3.454337  s :     3.454337
      pz      :     1.604360  p :     4.682321
      px      :     1.274115
      py      :     1.803846
      dz2     :     0.005433  d :     0.028847
      dxz     :     0.010127
      dyz     :     0.002579
      dx2y2   :     0.005634
      dxy     :     0.005074
 21 C s       :     2.836322  s :     2.836322
      pz      :     0.938918  p :     2.937786
      px      :     0.931887
      py      :     1.066981
      dz2     :     0.028745  d :     0.145657
      dxz     :     0.039659
      dyz     :     0.027214
      dx2y2   :     0.031301
      dxy     :     0.018738
 22 C s       :     2.856016  s :     2.856016
      pz      :     1.060774  p :     3.082406
      px      :     1.024372
      py      :     0.997260
      dz2     :     0.025881  d :     0.105802
      dxz     :     0.027782
      dyz     :     0.019012
      dx2y2   :     0.016415
      dxy     :     0.016712
 23 C s       :     2.859248  s :     2.859248
      pz      :     1.033971  p :     3.072208
      px      :     1.041522
      py      :     0.996716
      dz2     :     0.018812  d :     0.090552
      dxz     :     0.024086
      dyz     :     0.012538
      dx2y2   :     0.016947
      dxy     :     0.018169
 24 C s       :     2.859481  s :     2.859481
      pz      :     1.044790  p :     3.081745
      px      :     1.041755
      py      :     0.995199
      dz2     :     0.021065  d :     0.090865
      dxz     :     0.026929
      dyz     :     0.016005
      dx2y2   :     0.012093
      dxy     :     0.014773
 25 C s       :     2.859978  s :     2.859978
      pz      :     1.053050  p :     3.085629
      px      :     1.027598
      py      :     1.004982
      dz2     :     0.024104  d :     0.090746
      dxz     :     0.024287
      dyz     :     0.018362
      dx2y2   :     0.011841
      dxy     :     0.012151
 26 C s       :     2.859246  s :     2.859246
      pz      :     1.030607  p :     3.083893
      px      :     1.047969
      py      :     1.005316
      dz2     :     0.020225  d :     0.091276
      dxz     :     0.023946
      dyz     :     0.012443
      dx2y2   :     0.016960
      dxy     :     0.017702
 27 C s       :     2.857831  s :     2.857831
      pz      :     1.043313  p :     3.076388
      px      :     1.035806
      py      :     0.997269
      dz2     :     0.020866  d :     0.090544
      dxz     :     0.027628
      dyz     :     0.015511
      dx2y2   :     0.011778
      dxy     :     0.014761
 28 H s       :     0.901856  s :     0.901856
      pz      :     0.022015  p :     0.068105
      px      :     0.022493
      py      :     0.023597
 29 H s       :     0.902753  s :     0.902753
      pz      :     0.036937  p :     0.066728
      px      :     0.014856
      py      :     0.014934
 30 H s       :     0.902491  s :     0.902491
      pz      :     0.014787  p :     0.066915
      px      :     0.035581
      py      :     0.016547
 31 H s       :     0.900811  s :     0.900811
      pz      :     0.021877  p :     0.066887
      px      :     0.020601
      py      :     0.024409
 32 H s       :     0.896441  s :     0.896441
      pz      :     0.036956  p :     0.068040
      px      :     0.015486
      py      :     0.015598
 33 H s       :     0.916006  s :     0.916006
      pz      :     0.032849  p :     0.066491
      px      :     0.011813
      py      :     0.021828
 34 H s       :     0.922526  s :     0.922526
      pz      :     0.012443  p :     0.064591
      px      :     0.011622
      py      :     0.040526
 35 H s       :     0.922316  s :     0.922316
      pz      :     0.041060  p :     0.064677
      px      :     0.010212
      py      :     0.013405


                      *****************************
                      * MAYER POPULATION ANALYSIS *
                      *****************************

  NA   - Mulliken gross atomic population
  ZA   - Total nuclear charge
  QA   - Mulliken gross atomic charge
  VA   - Mayer's total valence
  BVA  - Mayer's bonded valence
  FA   - Mayer's free valence

  ATOM       NA         ZA         QA         VA         BVA        FA
  0 C      5.9939     6.0000     0.0061     3.9504     3.9504    -0.0000
  1 H      0.9706     1.0000     0.0294     0.9923     0.9923     0.0000
  2 H      0.9665     1.0000     0.0335     0.9991     0.9991    -0.0000
  3 H      0.9681     1.0000     0.0319     0.9979     0.9979     0.0000
  4 C      5.9526     6.0000     0.0474     4.1119     4.1119    -0.0000
  5 C      6.0331     6.0000    -0.0331     3.9747     3.9747     0.0000
  6 H      0.9700     1.0000     0.0300     0.9882     0.9882     0.0000
  7 H      0.9677     1.0000     0.0323     0.9967     0.9967     0.0000
  8 C      5.8504     6.0000     0.1496     3.9902     3.9902     0.0000
  9 N      7.3861     7.0000    -0.3861     3.1958     3.1958    -0.0000
 10 C      5.8177     6.0000     0.1823     4.2662     4.2662    -0.0000
 11 O      8.2629     8.0000    -0.2629     2.2817     2.2817     0.0000
 12 C      6.1119     6.0000    -0.1119     3.9633     3.9633     0.0000
 13 H      0.9256     1.0000     0.0744     0.9974     0.9974    -0.0000
 14 H      0.9358     1.0000     0.0642     0.9858     0.9858    -0.0000
 15 C      5.8468     6.0000     0.1532     3.9640     3.9640     0.0000
 16 H      0.9570     1.0000     0.0430     0.9927     0.9927     0.0000
 17 H      0.9690     1.0000     0.0310     0.9779     0.9779     0.0000
 18 H      0.9570     1.0000     0.0430     1.0049     1.0049    -0.0000
 19 H      0.9655     1.0000     0.0345     0.9845     0.9845     0.0000
 20 O      8.4152     8.0000    -0.4152     2.0332     2.0332     0.0000
 21 C      5.7075     6.0000     0.2925     3.8548     3.8548     0.0000
 22 C      6.1371     6.0000    -0.1371     3.9610     3.9610    -0.0000
 23 C      6.0147     6.0000    -0.0147     3.9097     3.9097     0.0000
 24 C      6.0225     6.0000    -0.0225     3.8697     3.8697    -0.0000
 25 C      6.0169     6.0000    -0.0169     3.8498     3.8498    -0.0000
 26 C      6.0205     6.0000    -0.0205     3.8590     3.8590    -0.0000
 27 C      6.0136     6.0000    -0.0136     3.8853     3.8853    -0.0000
 28 H      0.9896     1.0000     0.0104     1.0036     1.0036     0.0000
 29 H      0.9837     1.0000     0.0163     0.9841     0.9841    -0.0000
 30 H      0.9824     1.0000     0.0176     0.9841     0.9841    -0.0000
 31 H      0.9802     1.0000     0.0198     0.9842     0.9842    -0.0000
 32 H      0.9784     1.0000     0.0216     1.0032     1.0032     0.0000
 33 H      0.9673     1.0000     0.0327     1.0170     1.0170    -0.0000
 34 H      0.9768     1.0000     0.0232     0.9827     0.9827    -0.0000
 35 H      0.9855     1.0000     0.0145     0.9838     0.9838    -0.0000

  Mayer bond orders larger than 0.100000
B(  0-C ,  1-H ) :   0.9626 B(  0-C ,  2-H ) :   0.9629 B(  0-C ,  3-H ) :   0.9632 
B(  0-C ,  4-C ) :   1.0728 B(  4-C ,  5-C ) :   1.0198 B(  4-C , 20-O ) :   0.9602 
B(  4-C , 35-H ) :   0.9335 B(  5-C ,  6-H ) :   0.9463 B(  5-C ,  7-H ) :   0.9368 
B(  5-C ,  8-C ) :   1.0767 B(  8-C ,  9-N ) :   0.9540 B(  8-C , 18-H ) :   0.9451 
B(  8-C , 19-H ) :   0.9566 B(  9-N , 10-C ) :   1.1719 B(  9-N , 15-C ) :   0.9906 
B( 10-C , 11-O ) :   2.0655 B( 10-C , 12-C ) :   0.9736 B( 12-C , 13-H ) :   0.9252 
B( 12-C , 14-H ) :   0.9332 B( 12-C , 15-C ) :   1.0902 B( 15-C , 16-H ) :   0.9408 
B( 15-C , 17-H ) :   0.9491 B( 20-O , 21-C ) :   0.9614 B( 21-C , 22-C ) :   1.0178 
B( 21-C , 33-H ) :   0.9393 B( 21-C , 34-H ) :   0.9230 B( 22-C , 23-C ) :   1.4263 
B( 22-C , 27-C ) :   1.3940 B( 23-C , 24-C ) :   1.3906 B( 23-C , 32-H ) :   0.9871 
B( 24-C , 25-C ) :   1.4009 B( 24-C , 31-H ) :   0.9894 B( 25-C , 26-C ) :   1.3840 
B( 25-C , 30-H ) :   0.9908 B( 26-C , 27-C ) :   1.4000 B( 26-C , 29-H ) :   0.9912 
B( 27-C , 28-H ) :   0.9938 

-------
TIMINGS
-------

Total SCF time: 0 days 0 hours 3 min 41 sec 

Total time                  ....     221.900 sec
Sum of individual times     ....     221.614 sec  ( 99.9%)

Fock matrix formation       ....     217.448 sec  ( 98.0%)
  XC integration            ....       7.947 sec  (  3.7% of F)
    Basis function eval.    ....       2.400 sec  ( 30.2% of XC)
    Density eval.           ....       1.745 sec  ( 22.0% of XC)
    XC-Functional eval.     ....       1.581 sec  ( 19.9% of XC)
    XC-Potential eval.      ....       2.008 sec  ( 25.3% of XC)
Diagonalization             ....       0.020 sec  (  0.0%)
Density matrix formation    ....       0.015 sec  (  0.0%)
Population analysis         ....       0.017 sec  (  0.0%)
Initial guess               ....       0.019 sec  (  0.0%)
Orbital Transformation      ....       0.000 sec  (  0.0%)
Orbital Orthonormalization  ....       0.014 sec  (  0.0%)
DIIS solution               ....       0.006 sec  (  0.0%)
SOSCF solution              ....       0.070 sec  (  0.0%)
Grid generation             ....       4.020 sec  (  1.8%)


-------------------------------------------------------------------------------
                          DFT DISPERSION CORRECTION                            
                                                                               
                              DFTD3 V3.1  Rev 1                                
                              USING zero damping                               
-------------------------------------------------------------------------------
The omegaB97X-D3 functional is recognized. Fit by Chai et al.
Active option DFTDOPT                   ...         3   

molecular C6(AA) [au] = 11821.163132 


            DFT-D V3
 parameters
 s6 scaling factor         :     1.0000 
 rs6 scaling factor        :     1.2810 
 s8 scaling factor         :     1.0000 
 rs8 scaling factor        :     1.0940 
 Damping factor alpha6     :    14.0000 
 Damping factor alpha8     :    16.0000 
 ad hoc parameters k1-k3   :    16.0000     1.3333    -4.0000 

 Edisp/kcal,au: -12.115708710451  -0.019307608759 
 E6   /kcal   :  -5.589060195 
 E8   /kcal   :  -6.526648516 
 % E8         :  53.869308611 

-------------------------   ----------------
Dispersion correction           -0.019307609
-------------------------   ----------------


-------------------------   --------------------
FINAL SINGLE POINT ENERGY      -749.390397117628
-------------------------   --------------------

                                *** OPTIMIZATION RUN DONE ***

                            ***************************************
                            *     ORCA property calculations      *
                            ***************************************

                                    ---------------------
                                    Active property flags
                                    ---------------------
   (+) Dipole Moment


------------------------------------------------------------------------------
                       ORCA ELECTRIC PROPERTIES CALCULATION
------------------------------------------------------------------------------

Dipole Moment Calculation                       ... on
Quadrupole Moment Calculation                   ... off
Polarizability Calculation                      ... off
GBWName                                         ... 069000867.gbw
Electron density file                           ... 069000867.scfp
The origin for moment calculation is the CENTER OF MASS  = (-0.050154, -0.013840  0.018787)

-------------
DIPOLE MOMENT
-------------
                                X             Y             Z
Electronic contribution:     -6.86608      -5.83221       3.24675
Nuclear contribution   :      7.36354       6.25496      -4.14263
                        -----------------------------------------
Total Dipole Moment    :      0.49746       0.42275      -0.89588
                        -----------------------------------------
Magnitude (a.u.)       :      1.10850
Magnitude (Debye)      :      2.81759



--------------------
Rotational spectrum 
--------------------
 
Rotational constants in cm-1:     0.023607     0.012376     0.010042 
Rotational constants in MHz :   707.718574   371.015081   301.050204 

 Dipole components along the rotational axes: 
x,y,z [a.u.] :    -0.530378     0.388710    -0.892401 
x,y,z [Debye]:    -1.348114     0.988021    -2.268304 

 

Timings for individual modules:

Sum of individual times         ...     6763.058 sec (= 112.718 min)
GTO integral calculation        ...        4.652 sec (=   0.078 min)   0.1 %
SCF iterations                  ...     4491.367 sec (=  74.856 min)  66.4 %
SCF Gradient evaluation         ...     2264.176 sec (=  37.736 min)  33.5 %
Geometry relaxation             ...        2.863 sec (=   0.048 min)   0.0 %
                             ****ORCA TERMINATED NORMALLY****
TOTAL RUN TIME: 0 days 1 hours 52 minutes 46 seconds 267 msec
