
                                 *****************
                                 * O   R   C   A *
                                 *****************

           --- An Ab Initio, DFT and Semiempirical electronic structure package ---

                  #######################################################
                  #                        -***-                        #
                  #          Department of theory and spectroscopy      #
                  #               Directorship: Frank Neese             #
                  #        Max Planck Institute fuer Kohlenforschung    #
                  #                Kaiser Wilhelm Platz 1               #
                  #                 D-45470 Muelheim/Ruhr               #
                  #                      Germany                        #
                  #                                                     #
                  #                  All rights reserved                #
                  #                        -***-                        #
                  #######################################################


                         Program Version 4.2.0 -  RELEASE  -


 With contributions from (in alphabetic order):
   Daniel Aravena         : Magnetic Suceptibility
   Michael Atanasov       : Ab Initio Ligand Field Theory (pilot matlab implementation)
   Alexander A. Auer      : GIAO ZORA, VPT2
   Ute Becker             : Parallelization
   Giovanni Bistoni       : ED, misc. LED, open-shell LED, HFLED
   Martin Brehm           : Molecular dynamics
   Dmytro Bykov           : SCF Hessian
   Vijay G. Chilkuri      : MRCI spin determinant printing, contributions to CSF-ICE
   Dipayan Datta          : RHF DLPNO-CCSD density
   Achintya Kumar Dutta   : EOM-CC, STEOM-CC
   Dmitry Ganyushin       : Spin-Orbit,Spin-Spin,Magnetic field MRCI
   Miquel Garcia          : C-PCM Hessian, Gaussian charge scheme
   Yang Guo               : DLPNO-NEVPT2, CIM, IAO-localization
   Andreas Hansen         : Spin unrestricted coupled pair/coupled cluster methods
   Benjamin Helmich-Paris : CASSCF linear response (MC-RPA)
   Lee Huntington         : MR-EOM, pCC
   Robert Izsak           : Overlap fitted RIJCOSX, COSX-SCS-MP3, EOM
   Christian Kollmar      : KDIIS, OOCD, Brueckner-CCSD(T), CCSD density
   Simone Kossmann        : Meta GGA functionals, TD-DFT gradient, OOMP2, MP2 Hessian
   Martin Krupicka        : AUTO-CI
   Lucas Lang             : DCDCAS
   Dagmar Lenk            : GEPOL surface, SMD
   Dimitrios Liakos       : Extrapolation schemes; Compound Job, initial MDCI parallelization
   Dimitrios Manganas     : Further ROCIS development; embedding schemes
   Dimitrios Pantazis     : SARC Basis sets
   Taras Petrenko         : DFT Hessian,TD-DFT gradient, ASA, ECA, R-Raman, ABS, FL, XAS/XES, NRVS
   Peter Pinski           : DLPNO-MP2, DLPNO-MP2 Gradient
   Christoph Reimann      : Effective Core Potentials
   Marius Retegan         : Local ZFS, SOC
   Christoph Riplinger    : Optimizer, TS searches, QM/MM, DLPNO-CCSD(T), (RO)-DLPNO pert. Triples
   Tobias Risthaus        : Range-separated hybrids, TD-DFT gradient, RPA, STAB
   Michael Roemelt        : Original ROCIS implementation
   Masaaki Saitow         : Open-shell DLPNO-CCSD energy and density
   Barbara Sandhoefer     : DKH picture change effects
   Avijit Sen             : IP-ROCIS
   Kantharuban Sivalingam : CASSCF convergence, NEVPT2, FIC-MRCI
   Bernardo de Souza      : ESD, SOC TD-DFT
   Georgi Stoychev        : AutoAux, RI-MP2 NMR
   Willem Van den Heuvel  : Paramagnetic NMR
   Boris Wezisla          : Elementary symmetry handling
   Frank Wennmohs         : Technical directorship


 We gratefully acknowledge several colleagues who have allowed us to
 interface, adapt or use parts of their codes:
   Stefan Grimme, W. Hujo, H. Kruse,             : VdW corrections, initial TS optimization,
                  C. Bannwarth                     DFT functionals, gCP, sTDA/sTD-DF
   Ed Valeev, F. Pavosevic, A. Kumar             : LibInt (2-el integral package), F12 methods
   Garnet Chan, S. Sharma, J. Yang, R. Olivares  : DMRG
   Ulf Ekstrom                                   : XCFun DFT Library
   Mihaly Kallay                                 : mrcc  (arbitrary order and MRCC methods)
   Andreas Klamt, Michael Diedenhofen            : otool_cosmo (COSMO solvation model)
   Jiri Pittner, Ondrej Demel                    : Mk-CCSD
   Frank Weinhold                                : gennbo (NPA and NBO analysis)
   Christopher J. Cramer and Donald G. Truhlar   : smd solvation model
   Lars Goerigk                                  : TD-DFT with DH, B97 family of functionals
   V. Asgeirsson, H. Jonsson                     : NEB implementation
   FAccTs GmbH                                   : IRC, NEB, NEB-TS, Multilevel, MM, QM/MM, CI optimization
   S Lehtola, MJT Oliveira, MAL Marques          : LibXC Library


 Your calculation uses the libint2 library for the computation of 2-el integrals
 For citations please refer to: http://libint.valeyev.net

 Your ORCA version has been built with support for libXC version: 4.2.3
 For citations please refer to: https://tddft.org/programs/libxc/

 This ORCA versions uses:
   CBLAS   interface :  Fast vector & matrix operations
   LAPACKE interface :  Fast linear algebra routines
   SCALAPACK package :  Parallel linear algebra routines


Your calculation utilizes the atom-pairwise dispersion correction
with the zero-damping scheme (D30)
Cite in your paper:
S.Grimme, J.Antony, S.Ehrlich and H.Krieg, J.Chem.Phys., 132, (2010), 154104 
   

XCFun DFT library Copyright 2009-2010 Ulf Ekstrom and contributors.
See http://admol.org/xcfun for more information. This is free soft-
ware; see the source code for copying conditions. There is ABSOLUTELY
NO WARRANTY; not even for MERCHANTABILITY or FITNESS FOR A PARTICULAR
PURPOSE. For details see the documentation. Scientific users of this 
library should cite U. Ekstrom, L. Visscher, R. Bast, A. J. Thorvald-
sen and K. Ruud; J.Chem.Theor.Comp. 2010, DOI: 10.1021/ct100117s
XCFun Version 0.99 
----- Orbital basis set information -----
Your calculation utilizes the basis: def2-SVP
   F. Weigend and R. Ahlrichs, Phys. Chem. Chem. Phys. 7, 3297 (2005).

================================================================================
                                        WARNINGS
                       Please study these warnings very carefully!
================================================================================


WARNING: Geometry Optimization
  ===> : Switching off AutoStart
         For restart on a previous wavefunction, please use MOREAD

INFO   : the flag for use of LIBINT has been found!

================================================================================
                                       INPUT FILE
================================================================================
NAME = 000202910.inp
|  1> # ORCA input file
|  2> # -60.40640231
|  3> ! wB97X-D3 def2-SVP Opt
|  4> * xyz 0 1
|  5>    C        4.04800         0.81750        -1.95900
|  6>    C        4.64630         1.13440        -0.59380
|  7>    C        3.80710         0.57210         0.55160
|  8>    N        2.49150         1.18460         0.57810
|  9>    H        2.58870         2.19220         0.67030
| 10>    C        1.62300         0.67860         1.62920
| 11>    H        1.71920        -0.41170         1.63770
| 12>    C        0.14600         1.03880         1.39330
| 13>    C       -0.07050         2.55100         1.38590
| 14>    H       -1.13260         2.78090         1.40680
| 15>    H        0.34520         2.98780         0.48120
| 16>    H        0.40140         3.00730         2.25430
| 17>    H       -0.40480         0.60050         2.22920
| 18>    C       -0.36340         0.40910         0.06630
| 19>    C       -0.12670        -1.10350         0.09480
| 20>    C        0.70580        -1.70060        -0.84200
| 21>    C        0.93320        -3.06520        -0.81670
| 22>    C        0.32660        -3.85440         0.14380
| 23>    C       -0.51850        -3.26940         1.07180
| 24>    C       -0.74590        -1.90570         1.04610
| 25>    H       -1.41830        -1.46860         1.76860
| 26>    H       -1.00570        -3.87920         1.81890
| 27>    H        0.50420        -4.91970         0.16630
| 28>    H        1.58660        -3.51300        -1.55190
| 29>    H        1.17130        -1.09020        -1.60070
| 30>    C       -1.85690         0.60150        -0.16350
| 31>    C       -2.78700         0.71020         0.86230
| 32>    C       -4.13640         0.83370         0.57830
| 33>    C       -4.57900         0.84820        -0.73210
| 34>    C       -3.65940         0.73740        -1.76040
| 35>    C       -2.31270         0.61110        -1.47660
| 36>    H       -1.59220         0.52860        -2.27440
| 37>    H       -3.99250         0.74630        -2.78810
| 38>    H       -5.63280         0.94540        -0.94880
| 39>    H       -4.84520         0.92050         1.38950
| 40>    H       -2.47810         0.70780         1.89680
| 41>    O        0.30990         1.00460        -1.01970
| 42>    H        1.25030         1.04820        -0.75140
| 43>    H        1.92380         1.04310         2.62680
| 44>    H        4.34710         0.71280         1.50460
| 45>    H        3.66410        -0.50370         0.40640
| 46>    H        5.64920         0.70810        -0.52600
| 47>    H        4.73710         2.21710        -0.47620
| 48>    H        3.06620         1.27090        -2.06320
| 49>    H        4.68980         1.19890        -2.74970
| 50>    H        3.94770        -0.25790        -2.08610
| 51> *
| 52> 
| 53>                          ****END OF INPUT****
================================================================================

                       *****************************
                       * Geometry Optimization Run *
                       *****************************

Geometry optimization settings:
Update method            Update   .... BFGS
Choice of coordinates    CoordSys .... Z-matrix Internals
Initial Hessian          InHess   .... Almoef's Model

Convergence Tolerances:
Energy Change            TolE     ....  5.0000e-06 Eh
Max. Gradient            TolMAXG  ....  3.0000e-04 Eh/bohr
RMS Gradient             TolRMSG  ....  1.0000e-04 Eh/bohr
Max. Displacement        TolMAXD  ....  4.0000e-03 bohr
RMS Displacement         TolRMSD  ....  2.0000e-03 bohr
Strict Convergence                ....  False
------------------------------------------------------------------------------
                        ORCA OPTIMIZATION COORDINATE SETUP
------------------------------------------------------------------------------

The optimization will be done in new redundant internal coordinates
Making redundant internal coordinates   ...  (new redundants) done
Evaluating the initial hessian          ...  (Almloef) done
Evaluating the coordinates              ...  done
Calculating the B-matrix                .... done
Calculating the G-matrix                .... done
Diagonalizing the G-matrix              .... done
Small eigenvalue found = 2.233e-03
Small eigenvalue found = 7.944e-03
Small eigenvalue found = 1.067e-02
Small eigenvalue found = 1.529e-02
Small eigenvalue found = 2.371e-02
Small eigenvalue found = 2.646e-02
The first mode is                       ....  118
The number of degrees of freedom        ....  132

    -----------------------------------------------------------------
                    Redundant Internal Coordinates


    -----------------------------------------------------------------
         Definition                    Initial Value    Approx d2E/dq
    -----------------------------------------------------------------
      1. B(C   1,C   0)                  1.5239         0.382092   
      2. B(C   2,C   1)                  1.5272         0.377419   
      3. B(N   3,C   2)                  1.4514         0.446540   
      4. B(H   4,N   3)                  1.0165         0.422548   
      5. B(C   5,N   3)                  1.4544         0.441780   
      6. B(H   6,C   5)                  1.0946         0.354107   
      7. B(C   7,C   5)                  1.5385         0.362116   
      8. B(C   8,C   7)                  1.5276         0.376831   
      9. B(H   9,C   8)                  1.0869         0.364227   
     10. B(H  10,C   8)                  1.0872         0.363775   
     11. B(H  11,C   8)                  1.0886         0.361976   
     12. B(H  12,C   7)                  1.0928         0.356412   
     13. B(C  13,C   7)                  1.5547         0.341231   
     14. B(C  14,C  13)                  1.5313         0.371831   
     15. B(C  15,C  14)                  1.3882         0.628875   
     16. B(C  16,C  15)                  1.3836         0.639546   
     17. B(C  17,C  16)                  1.3832         0.640500   
     18. B(C  18,C  17)                  1.3848         0.636904   
     19. B(C  19,C  18)                  1.3828         0.641617   
     20. B(C  19,C  14)                  1.3899         0.624957   
     21. B(H  20,C  19)                  1.0794         0.374348   
     22. B(H  21,C  18)                  1.0805         0.372954   
     23. B(H  22,C  17)                  1.0802         0.373250   
     24. B(H  23,C  16)                  1.0807         0.372575   
     25. B(H  24,C  15)                  1.0793         0.374527   
     26. B(C  25,C  13)                  1.5233         0.382918   
     27. B(C  26,C  25)                  1.3889         0.627223   
     28. B(C  27,C  26)                  1.3845         0.637593   
     29. B(C  28,C  27)                  1.3832         0.640592   
     30. B(C  29,C  28)                  1.3840         0.638818   
     31. B(C  30,C  25)                  1.3900         0.624815   
     32. B(C  30,C  29)                  1.3821         0.643285   
     33. B(H  31,C  30)                  1.0782         0.376120   
     34. B(H  32,C  29)                  1.0804         0.373066   
     35. B(H  33,C  28)                  1.0802         0.373256   
     36. B(H  34,C  27)                  1.0807         0.372574   
     37. B(H  35,C  26)                  1.0796         0.374074   
     38. B(O  36,C  13)                  1.4097         0.520465   
     39. B(H  37,O  36)                  0.9789         0.485086   
     40. B(H  38,C   5)                  1.1039         0.342201   
     41. B(H  39,C   2)                  1.1044         0.341599   
     42. B(H  40,C   2)                  1.0949         0.353633   
     43. B(H  41,C   1)                  1.0919         0.357661   
     44. B(H  42,C   1)                  1.0928         0.356354   
     45. B(H  43,C   0)                  1.0864         0.364835   
     46. B(H  44,C   0)                  1.0875         0.363469   
     47. B(H  45,H  23)                  4.0566         0.000001   
     48. B(H  45,C   0)                  1.0875         0.363396   
     49. A(C   1,C   0,H  44)          110.2884         0.326022   
     50. A(C   1,C   0,H  43)          110.7286         0.326223   
     51. A(H  43,C   0,H  44)          108.4957         0.291864   
     52. A(C   1,C   0,H  45)          110.2767         0.326011   
     53. A(H  44,C   0,H  45)          108.4374         0.291683   
     54. A(H  43,C   0,H  45)          108.5493         0.291855   
     55. A(C   0,C   1,H  42)          109.5758         0.324963   
     56. A(H  41,C   1,H  42)          107.6868         0.290053   
     57. A(C   0,C   1,C   2)          112.3085         0.365395   
     58. A(C   2,C   1,H  42)          109.2517         0.324307   
     59. A(C   0,C   1,H  41)          109.5768         0.325159   
     60. A(C   2,C   1,H  41)          108.3249         0.324502   
     61. A(C   1,C   2,N   3)          110.8788         0.372964   
     62. A(H  39,C   2,H  40)          107.6664         0.287628   
     63. A(C   1,C   2,H  39)          109.3663         0.322066   
     64. A(N   3,C   2,H  40)          107.3774         0.331005   
     65. A(C   1,C   2,H  40)          109.5155         0.323899   
     66. A(N   3,C   2,H  39)          111.9435         0.329116   
     67. A(C   2,N   3,H   4)          109.4689         0.338020   
     68. A(H   4,N   3,C   5)          109.6598         0.337417   
     69. A(C   2,N   3,C   5)          114.0579         0.380845   
     70. A(N   3,C   5,C   7)          112.3977         0.369634   
     71. A(N   3,C   5,H   6)          107.4391         0.330492   
     72. A(C   7,C   5,H  38)          108.8364         0.319985   
     73. A(H   6,C   5,H  38)          107.3342         0.287767   
     74. A(H   6,C   5,C   7)          108.5892         0.321779   
     75. A(N   3,C   5,H  38)          112.0574         0.328630   
     76. A(H  12,C   7,C  13)          108.9839         0.319008   
     77. A(C   8,C   7,C  13)          110.5104         0.358314   
     78. A(C   5,C   7,C   8)          111.6270         0.361959   
     79. A(C   5,C   7,C  13)          110.5250         0.355897   
     80. A(C   8,C   7,H  12)          109.2263         0.324233   
     81. A(C   5,C   7,H  12)          105.8246         0.322122   
     82. A(H   9,C   8,H  11)          108.6391         0.291599   
     83. A(H  10,C   8,H  11)          109.2477         0.291542   
     84. A(C   7,C   8,H  11)          110.4648         0.325059   
     85. A(H   9,C   8,H  10)          107.7368         0.291826   
     86. A(C   7,C   8,H  10)          110.3367         0.325324   
     87. A(C   7,C   8,H   9)          110.3514         0.325390   
     88. A(C  25,C  13,O  36)          107.3797         0.383946   
     89. A(C  14,C  13,O  36)          110.9639         0.381991   
     90. A(C   7,C  13,O  36)          109.2664         0.376351   
     91. A(C   7,C  13,C  14)          109.4855         0.357501   
     92. A(C  14,C  13,C  25)          106.2083         0.364598   
     93. A(C   7,C  13,C  25)          113.5073         0.359292   
     94. A(C  15,C  14,C  19)          118.7358         0.435802   
     95. A(C  13,C  14,C  19)          120.9299         0.396913   
     96. A(C  13,C  14,C  15)          120.3320         0.397349   
     97. A(C  14,C  15,C  16)          120.6913         0.437618   
     98. A(C  16,C  15,H  24)          119.9823         0.357143   
     99. A(C  14,C  15,H  24)          119.3243         0.356124   
    100. A(C  15,C  16,C  17)          120.2194         0.439067   
    101. A(C  17,C  16,H  23)          120.0732         0.356917   
    102. A(C  15,C  16,H  23)          119.7073         0.356826   
    103. A(C  16,C  17,C  18)          119.4681         0.438739   
    104. A(C  18,C  17,H  22)          120.1978         0.356685   
    105. A(C  16,C  17,H  22)          120.3326         0.357026   
    106. A(C  17,C  18,C  19)          120.3003         0.438877   
    107. A(C  19,C  18,H  21)          119.6899         0.357084   
    108. A(C  17,C  18,H  21)          120.0096         0.356637   
    109. A(C  18,C  19,H  20)          119.2978         0.357310   
    110. A(C  14,C  19,H  20)          120.1258         0.355717   
    111. A(C  14,C  19,C  18)          120.5740         0.437381   
    112. A(C  26,C  25,C  30)          118.5264         0.435578   
    113. A(C  13,C  25,C  30)          117.7032         0.398951   
    114. A(C  13,C  25,C  26)          123.7124         0.399221   
    115. A(C  27,C  26,H  35)          118.3996         0.356884   
    116. A(C  25,C  26,H  35)          121.0577         0.355892   
    117. A(C  25,C  26,C  27)          120.5413         0.437170   
    118. A(C  28,C  27,H  34)          120.0260         0.356925   
    119. A(C  26,C  27,H  34)          119.5002         0.356641   
    120. A(C  26,C  27,C  28)          120.4737         0.438836   
    121. A(C  29,C  28,H  33)          120.4219         0.356868   
    122. A(C  27,C  28,H  33)          120.2081         0.357036   
    123. A(C  27,C  28,C  29)          119.3700         0.438988   
    124. A(C  30,C  29,H  32)          119.7699         0.357260   
    125. A(C  28,C  29,H  32)          120.0834         0.356837   
    126. A(C  28,C  29,C  30)          120.1464         0.439320   
    127. A(C  29,C  30,H  31)          120.4122         0.357755   
    128. A(C  25,C  30,H  31)          118.6443         0.355989   
    129. A(C  25,C  30,C  29)          120.9402         0.437567   
    130. A(C  13,O  36,H  37)          105.4559         0.354987   
    131. D(C   2,C   1,C   0,H  43)     62.0658         0.011629   
    132. D(H  42,C   1,C   0,H  45)   -179.7065         0.011629   
    133. D(H  41,C   1,C   0,H  44)    -57.3950         0.011629   
    134. D(H  41,C   1,C   0,H  45)     62.3435         0.011629   
    135. D(H  42,C   1,C   0,H  43)    -59.5461         0.011629   
    136. D(C   2,C   1,C   0,H  45)    -58.0946         0.011629   
    137. D(C   2,C   1,C   0,H  44)   -177.8331         0.011629   
    138. D(H  42,C   1,C   0,H  44)     60.5549         0.011629   
    139. D(H  41,C   1,C   0,H  43)   -177.4961         0.011629   
    140. D(N   3,C   2,C   1,H  41)    175.4408         0.011361   
    141. D(H  39,C   2,C   1,C   0)    172.6815         0.011361   
    142. D(H  39,C   2,C   1,H  42)    -65.5216         0.011361   
    143. D(N   3,C   2,C   1,H  42)     58.3969         0.011361   
    144. D(H  39,C   2,C   1,H  41)     51.5222         0.011361   
    145. D(H  40,C   2,C   1,H  42)    176.7125         0.011361   
    146. D(N   3,C   2,C   1,C   0)    -63.3999         0.011361   
    147. D(H  40,C   2,C   1,C   0)     54.9156         0.011361   
    148. D(H  40,C   2,C   1,H  41)    -66.2436         0.011361   
    149. D(C   5,N   3,C   2,H  39)    -58.7267         0.017007   
    150. D(C   5,N   3,C   2,H  40)     59.2366         0.017007   
    151. D(C   5,N   3,C   2,C   1)    178.8409         0.017007   
    152. D(H   4,N   3,C   2,H  40)   -177.4922         0.017007   
    153. D(H   4,N   3,C   2,H  39)     64.5446         0.017007   
    154. D(H   4,N   3,C   2,C   1)    -57.8878         0.017007   
    155. D(H  38,C   5,N   3,H   4)    -49.9417         0.016643   
    156. D(C   7,C   5,N   3,H   4)     72.9995         0.016643   
    157. D(C   7,C   5,N   3,C   2)   -163.8328         0.016643   
    158. D(H  38,C   5,N   3,C   2)     73.2260         0.016643   
    159. D(H   6,C   5,N   3,C   2)    -44.4354         0.016643   
    160. D(H   6,C   5,N   3,H   4)   -167.6031         0.016643   
    161. D(C   8,C   7,C   5,N   3)    -61.9842         0.010512   
    162. D(C  13,C   7,C   5,H   6)    -57.2802         0.010512   
    163. D(C  13,C   7,C   5,N   3)     61.4441         0.010512   
    164. D(H  12,C   7,C   5,H  38)    -55.9736         0.010512   
    165. D(H  12,C   7,C   5,H   6)     60.5691         0.010512   
    166. D(H  12,C   7,C   5,N   3)    179.2935         0.010512   
    167. D(C   8,C   7,C   5,H  38)     62.7487         0.010512   
    168. D(C  13,C   7,C   5,H  38)   -173.8230         0.010512   
    169. D(C   8,C   7,C   5,H   6)    179.2915         0.010512   
    170. D(H  11,C   8,C   7,C  13)   -172.6252         0.011328   
    171. D(H  11,C   8,C   7,C   5)    -49.1886         0.011328   
    172. D(H  10,C   8,C   7,C  13)    -51.7234         0.011328   
    173. D(H  10,C   8,C   7,H  12)   -171.6110         0.011328   
    174. D(H  10,C   8,C   7,C   5)     71.7131         0.011328   
    175. D(H   9,C   8,C   7,C  13)     67.2242         0.011328   
    176. D(H  11,C   8,C   7,H  12)     67.4872         0.011328   
    177. D(H   9,C   8,C   7,H  12)    -52.6634         0.011328   
    178. D(H   9,C   8,C   7,C   5)   -169.3392         0.011328   
    179. D(O  36,C  13,C   7,H  12)    177.9357         0.009422   
    180. D(O  36,C  13,C   7,C   8)     57.9024         0.009422   
    181. D(O  36,C  13,C   7,C   5)    -66.1697         0.009422   
    182. D(C  25,C  13,C   7,H  12)     58.1276         0.009422   
    183. D(C  25,C  13,C   7,C   8)    -61.9057         0.009422   
    184. D(C  25,C  13,C   7,C   5)    174.0223         0.009422   
    185. D(C  14,C  13,C   7,H  12)    -60.3483         0.009422   
    186. D(C  14,C  13,C   7,C   8)    179.6184         0.009422   
    187. D(C  14,C  13,C   7,C   5)     55.5464         0.009422   
    188. D(C  19,C  14,C  13,C  25)    -60.6205         0.010346   
    189. D(C  19,C  14,C  13,C   7)     62.2994         0.010346   
    190. D(C  15,C  14,C  13,O  36)      2.4285         0.010346   
    191. D(C  15,C  14,C  13,C  25)    118.8192         0.010346   
    192. D(C  19,C  14,C  13,O  36)   -177.0111         0.010346   
    193. D(C  15,C  14,C  13,C   7)   -118.2610         0.010346   
    194. D(H  24,C  15,C  14,C  19)    178.4301         0.027415   
    195. D(H  24,C  15,C  14,C  13)     -1.0217         0.027415   
    196. D(C  16,C  15,C  14,C  19)     -1.0578         0.027415   
    197. D(C  16,C  15,C  14,C  13)    179.4904         0.027415   
    198. D(H  23,C  16,C  15,H  24)      0.6980         0.028415   
    199. D(H  23,C  16,C  15,C  14)   -179.8174         0.028415   
    200. D(C  17,C  16,C  15,H  24)   -179.2344         0.028415   
    201. D(C  17,C  16,C  15,C  14)      0.2502         0.028415   
    202. D(H  22,C  17,C  16,H  23)      0.1744         0.028506   
    203. D(H  22,C  17,C  16,C  15)   -179.8935         0.028506   
    204. D(C  18,C  17,C  16,H  23)   -179.3765         0.028506   
    205. D(C  18,C  17,C  16,C  15)      0.5556         0.028506   
    206. D(H  21,C  18,C  17,H  22)     -0.2451         0.028166   
    207. D(H  21,C  18,C  17,C  16)    179.3065         0.028166   
    208. D(C  19,C  18,C  17,H  22)    179.9102         0.028166   
    209. D(C  19,C  18,C  17,C  16)     -0.5382         0.028166   
    210. D(H  20,C  19,C  18,C  17)    179.1618         0.028612   
    211. D(C  14,C  19,C  18,H  21)    179.8699         0.028612   
    212. D(C  14,C  19,C  18,C  17)     -0.2849         0.028612   
    213. D(H  20,C  19,C  14,C  15)   -178.3677         0.027053   
    214. D(H  20,C  19,C  14,C  13)      1.0807         0.027053   
    215. D(C  18,C  19,C  14,C  15)      1.0744         0.027053   
    216. D(H  20,C  19,C  18,H  21)     -0.6834         0.028612   
    217. D(C  18,C  19,C  14,C  13)   -179.4772         0.027053   
    218. D(C  30,C  25,C  13,O  36)     32.4635         0.010931   
    219. D(C  30,C  25,C  13,C  14)    -86.3129         0.010931   
    220. D(C  30,C  25,C  13,C   7)    153.3391         0.010931   
    221. D(C  26,C  25,C  13,O  36)   -150.3521         0.010931   
    222. D(C  26,C  25,C  13,C  14)     90.8715         0.010931   
    223. D(C  26,C  25,C  13,C   7)    -29.4765         0.010931   
    224. D(H  35,C  26,C  25,C  30)   -179.9612         0.027262   
    225. D(H  35,C  26,C  25,C  13)      2.8761         0.027262   
    226. D(C  27,C  26,C  25,C  30)     -0.4027         0.027262   
    227. D(C  27,C  26,C  25,C  13)   -177.5654         0.027262   
    228. D(H  34,C  27,C  26,H  35)     -0.2242         0.028231   
    229. D(H  34,C  27,C  26,C  25)   -179.7942         0.028231   
    230. D(C  28,C  27,C  26,H  35)    179.6904         0.028231   
    231. D(C  28,C  27,C  26,C  25)      0.1203         0.028231   
    232. D(H  33,C  28,C  27,H  34)     -0.0465         0.028515   
    233. D(H  33,C  28,C  27,C  26)   -179.9606         0.028515   
    234. D(C  29,C  28,C  27,H  34)    179.9392         0.028515   
    235. D(C  29,C  28,C  27,C  26)      0.0251         0.028515   
    236. D(H  32,C  29,C  28,H  33)     -0.0827         0.028346   
    237. D(H  32,C  29,C  28,C  27)    179.9317         0.028346   
    238. D(C  30,C  29,C  28,H  33)   -179.8936         0.028346   
    239. D(C  30,C  29,C  28,C  27)      0.1208         0.028346   
    240. D(H  31,C  30,C  29,H  32)      0.4431         0.028771   
    241. D(H  31,C  30,C  29,C  28)   -179.7454         0.028771   
    242. D(C  25,C  30,C  29,H  32)    179.7728         0.028771   
    243. D(C  25,C  30,C  29,C  28)     -0.4157         0.028771   
    244. D(H  31,C  30,C  25,C  26)    179.8927         0.027040   
    245. D(H  31,C  30,C  25,C  13)     -2.7730         0.027040   
    246. D(C  29,C  30,C  25,C  26)      0.5514         0.027040   
    247. D(C  29,C  30,C  25,C  13)    177.8858         0.027040   
    248. D(H  37,O  36,C  13,C  25)    167.4957         0.021478   
    249. D(H  37,O  36,C  13,C  14)    -76.8375         0.021478   
    250. D(H  37,O  36,C  13,C   7)     43.9815         0.021478   
    -----------------------------------------------------------------

Number of atoms                         .... 46
Number of degrees of freedom            .... 250

         *************************************************************
         *                GEOMETRY OPTIMIZATION CYCLE   1            *
         *************************************************************
---------------------------------
CARTESIAN COORDINATES (ANGSTROEM)
---------------------------------
  C      4.048000    0.817500   -1.959000
  C      4.646300    1.134400   -0.593800
  C      3.807100    0.572100    0.551600
  N      2.491500    1.184600    0.578100
  H      2.588700    2.192200    0.670300
  C      1.623000    0.678600    1.629200
  H      1.719200   -0.411700    1.637700
  C      0.146000    1.038800    1.393300
  C     -0.070500    2.551000    1.385900
  H     -1.132600    2.780900    1.406800
  H      0.345200    2.987800    0.481200
  H      0.401400    3.007300    2.254300
  H     -0.404800    0.600500    2.229200
  C     -0.363400    0.409100    0.066300
  C     -0.126700   -1.103500    0.094800
  C      0.705800   -1.700600   -0.842000
  C      0.933200   -3.065200   -0.816700
  C      0.326600   -3.854400    0.143800
  C     -0.518500   -3.269400    1.071800
  C     -0.745900   -1.905700    1.046100
  H     -1.418300   -1.468600    1.768600
  H     -1.005700   -3.879200    1.818900
  H      0.504200   -4.919700    0.166300
  H      1.586600   -3.513000   -1.551900
  H      1.171300   -1.090200   -1.600700
  C     -1.856900    0.601500   -0.163500
  C     -2.787000    0.710200    0.862300
  C     -4.136400    0.833700    0.578300
  C     -4.579000    0.848200   -0.732100
  C     -3.659400    0.737400   -1.760400
  C     -2.312700    0.611100   -1.476600
  H     -1.592200    0.528600   -2.274400
  H     -3.992500    0.746300   -2.788100
  H     -5.632800    0.945400   -0.948800
  H     -4.845200    0.920500    1.389500
  H     -2.478100    0.707800    1.896800
  O      0.309900    1.004600   -1.019700
  H      1.250300    1.048200   -0.751400
  H      1.923800    1.043100    2.626800
  H      4.347100    0.712800    1.504600
  H      3.664100   -0.503700    0.406400
  H      5.649200    0.708100   -0.526000
  H      4.737100    2.217100   -0.476200
  H      3.066200    1.270900   -2.063200
  H      4.689800    1.198900   -2.749700
  H      3.947700   -0.257900   -2.086100

----------------------------
CARTESIAN COORDINATES (A.U.)
----------------------------
  NO LB      ZA    FRAG     MASS         X           Y           Z
   0 C     6.0000    0    12.011    7.649611    1.544851   -3.701973
   1 C     6.0000    0    12.011    8.780235    2.143705   -1.122119
   2 C     6.0000    0    12.011    7.194376    1.081112    1.042373
   3 N     7.0000    0    14.007    4.708253    2.238570    1.092451
   4 H     1.0000    0     1.008    4.891934    4.142658    1.266683
   5 C     6.0000    0    12.011    3.067026    1.282368    3.078742
   6 H     1.0000    0     1.008    3.248817   -0.778000    3.094804
   7 C     6.0000    0    12.011    0.275900    1.963048    2.632955
   8 C     6.0000    0    12.011   -0.133226    4.820691    2.618971
   9 H     1.0000    0     1.008   -2.140304    5.255139    2.658467
  10 H     1.0000    0     1.008    0.652333    5.646124    0.909336
  11 H     1.0000    0     1.008    0.758536    5.682973    4.260010
  12 H     1.0000    0     1.008   -0.764961    1.134781    4.212577
  13 C     6.0000    0    12.011   -0.686726    0.773087    0.125289
  14 C     6.0000    0    12.011   -0.239428   -2.085313    0.179146
  15 C     6.0000    0    12.011    1.333769   -3.213668   -1.591149
  16 C     6.0000    0    12.011    1.763492   -5.792389   -1.543339
  17 C     6.0000    0    12.011    0.617185   -7.283760    0.271743
  18 C     6.0000    0    12.011   -0.979823   -6.178271    2.025408
  19 C     6.0000    0    12.011   -1.409547   -3.601251    1.976843
  20 H     1.0000    0     1.008   -2.680199   -2.775252    3.342170
  21 H     1.0000    0     1.008   -1.900498   -7.330626    3.437223
  22 H     1.0000    0     1.008    0.952800   -9.296886    0.314261
  23 H     1.0000    0     1.008    2.998239   -6.638608   -2.932666
  24 H     1.0000    0     1.008    2.213436   -2.060179   -3.024885
  25 C     6.0000    0    12.011   -3.509032    1.136670   -0.308970
  26 C     6.0000    0    12.011   -5.266667    1.342084    1.629511
  27 C     6.0000    0    12.011   -7.816663    1.575465    1.092829
  28 C     6.0000    0    12.011   -8.653056    1.602866   -1.383469
  29 C     6.0000    0    12.011   -6.915264    1.393484   -3.326674
  30 C     6.0000    0    12.011   -4.370370    1.154812   -2.790370
  31 H     1.0000    0     1.008   -3.008822    0.998909   -4.297993
  32 H     1.0000    0     1.008   -7.544732    1.410303   -5.268745
  33 H     1.0000    0     1.008  -10.644449    1.786547   -1.792972
  34 H     1.0000    0     1.008   -9.156101    1.739493    2.625774
  35 H     1.0000    0     1.008   -4.682930    1.337548    3.584433
  36 O     8.0000    0    15.999    0.585626    1.898419   -1.926954
  37 H     1.0000    0     1.008    2.362725    1.980811   -1.419940
  38 H     1.0000    0     1.008    3.635455    1.971173    4.963933
  39 H     1.0000    0     1.008    8.214828    1.346997    2.843282
  40 H     1.0000    0     1.008    6.924146   -0.951855    0.767985
  41 H     1.0000    0     1.008   10.675441    1.338115   -0.993996
  42 H     1.0000    0     1.008    8.951822    4.189712   -0.899888
  43 H     1.0000    0     1.008    5.794278    2.401653   -3.898883
  44 H     1.0000    0     1.008    8.862438    2.265593   -5.196180
  45 H     1.0000    0     1.008    7.460072   -0.487360   -3.942158

--------------------------------
INTERNAL COORDINATES (ANGSTROEM)
--------------------------------
 C      0   0   0     0.000000000000     0.00000000     0.00000000
 C      1   0   0     1.523863360016     0.00000000     0.00000000
 C      2   1   0     1.527212850260   112.30849673     0.00000000
 N      3   2   1     1.451434414640   110.87877535   296.60008154
 H      4   3   2     1.016467628604   109.46888430   302.11221429
 C      4   3   2     1.454351903770   114.05791591   178.84092134
 H      6   4   3     1.094568764400   107.43911626   315.56455150
 C      6   4   3     1.538480370366   112.39769969   196.16716944
 C      8   6   4     1.527637342434   111.62699668   298.01580323
 H      9   8   6     1.086897985093   110.35143335   190.66075355
 H      9   8   6     1.087236322057   110.33672286    71.71312716
 H      9   8   6     1.088585256193   110.46477515   310.81136120
 H      8   6   4     1.092802058929   105.82460715   179.29345413
 C      8   6   4     1.554650909368   110.52504421    61.44407982
 C     14   8   6     1.531273293700   109.48546408    55.54636215
 C     15  14   8     1.388228691535   120.33197261   241.73897962
 C     16  15  14     1.383648802984   120.69134781   179.49042973
 C     17  16  15     1.383242729965   120.21943749     0.25017002
 C     18  17  16     1.384775436668   119.46810872     0.55561164
 C     19  18  17     1.382768577890   120.30031388   359.46178325
 H     20  19  18     1.079437084781   119.29783504   179.16182746
 H     19  18  17     1.080452817110   120.00956318   179.30647965
 H     18  17  16     1.080237057317   120.33258170   180.10653439
 H     17  16  15     1.080729124249   119.70734817   180.18256867
 H     16  15  14     1.079307231515   119.32433846   358.97831380
 C     14   8   6     1.523275434713   113.50730840   174.02227357
 C     26  14   8     1.388944685724   123.71236654   330.52353624
 C     27  26  14     1.384481350543   120.54130304   182.43456986
 C     28  27  26     1.383203950978   120.47370492     0.12032974
 C     29  28  27     1.383958702419   119.37001624     0.02507428
 C     30  29  28     1.382061872710   120.14640492     0.12076721
 H     31  30  29     1.078151816768   120.41223620   180.25464033
 H     30  29  28     1.080371283402   120.08341689   179.93167506
 H     29  28  27     1.080231998230   120.20807654   180.03941266
 H     28  27  26     1.080729901502   119.50021006   180.20578663
 H     27  26  14     1.079636614792   121.05765922     2.87608373
 O     14   8   6     1.409733712444   109.26639870   293.83034567
 H     37  14   8     0.978896322396   105.45592168    43.98146881
 H      6   4   3     1.103878005035   112.05744080    73.22597890
 H      3   2   1     1.104357500993   109.36626665   172.68149159
 H      3   2   1     1.094932728527   109.51547031    54.91564906
 H      2   1   3     1.091850236983   109.57684768   120.43811578
 H      2   1   3     1.092846599482   109.57578454   238.38805995
 H      1   2   3     1.086443942410   110.72856913    62.06580324
 H      1   2   3     1.087464799430   110.28840286   182.16688128
 H      1   2   3     1.087519958438   110.27669967   301.90541138

---------------------------
INTERNAL COORDINATES (A.U.)
---------------------------
 C      0   0   0     0.000000000000     0.00000000     0.00000000
 C      1   0   0     2.879684415948     0.00000000     0.00000000
 C      2   1   0     2.886014035197   112.30849673     0.00000000
 N      3   2   1     2.742813545017   110.87877535   296.60008154
 H      4   3   2     1.920845442058   109.46888430   302.11221429
 C      4   3   2     2.748326800473   114.05791591   178.84092134
 H      6   4   3     2.068435199460   107.43911626   315.56455150
 C      6   4   3     2.907306562405   112.39769969   196.16716944
 C      8   6   4     2.886816209152   111.62699668   298.01580323
 H      9   8   6     2.053939527337   110.35143335   190.66075355
 H      9   8   6     2.054578891540   110.33672286    71.71312716
 H      9   8   6     2.057128007629   110.46477515   310.81136120
 H      8   6   4     2.065096609962   105.82460715   179.29345413
 C      8   6   4     2.937864452558   110.52504421    61.44407982
 C     14   8   6     2.893687161281   109.48546408    55.54636215
 C     15  14   8     2.623372038252   120.33197261   241.73897962
 C     16  15  14     2.614717303168   120.69134781   179.49042973
 C     17  16  15     2.613949936371   120.21943749     0.25017002
 C     18  17  16     2.616846332284   119.46810872     0.55561164
 C     19  18  17     2.613053918804   120.30031388   359.46178325
 H     20  19  18     2.039840469034   119.29783504   179.16182746
 H     19  18  17     2.041759924961   120.00956318   179.30647965
 H     18  17  16     2.041352198041   120.33258170   180.10653439
 H     17  16  15     2.042282069783   119.70734817   180.18256867
 H     16  15  14     2.039595081924   119.32433846   358.97831380
 C     14   8   6     2.878573398137   113.50730840   174.02227357
 C     26  14   8     2.624725071183   123.71236654   330.52353624
 C     27  26  14     2.616290590047   120.54130304   182.43456986
 C     28  27  26     2.613876654705   120.47370492     0.12032974
 C     29  28  27     2.615302928228   119.37001624     0.02507428
 C     30  29  28     2.611718439557   120.14640492     0.12076721
 H     31  30  29     2.037411664481   120.41223620   180.25464033
 H     30  29  28     2.041605848583   120.08341689   179.93167506
 H     29  28  27     2.041342637753   120.20807654   180.03941266
 H     28  27  26     2.042283538578   119.50021006   180.20578663
 H     27  26  14     2.040217526111   121.05765922     2.87608373
 O     14   8   6     2.664010638274   109.26639870   293.83034567
 H     37  14   8     1.849845962831   105.45592168    43.98146881
 H      6   4   3     2.086027114775   112.05744080    73.22597890
 H      3   2   1     2.086933230819   109.36626665   172.68149159
 H      3   2   1     2.069122991984   109.51547031    54.91564906
 H      2   1   3     2.063297927155   109.57684768   120.43811578
 H      2   1   3     2.065180779409   109.57578454   238.38805995
 H      1   2   3     2.053081511013   110.72856913    62.06580324
 H      1   2   3     2.055010651203   110.28840286   182.16688128
 H      1   2   3     2.055114886620   110.27669967   301.90541138

---------------------
BASIS SET INFORMATION
---------------------
There are 4 groups of distinct atoms

 Group   1 Type C   : 7s4p1d contracted to 3s2p1d pattern {511/31/1}
 Group   2 Type N   : 7s4p1d contracted to 3s2p1d pattern {511/31/1}
 Group   3 Type H   : 4s1p contracted to 2s1p pattern {31/1}
 Group   4 Type O   : 7s4p1d contracted to 3s2p1d pattern {511/31/1}

Atom   0C    basis set group =>   1
Atom   1C    basis set group =>   1
Atom   2C    basis set group =>   1
Atom   3N    basis set group =>   2
Atom   4H    basis set group =>   3
Atom   5C    basis set group =>   1
Atom   6H    basis set group =>   3
Atom   7C    basis set group =>   1
Atom   8C    basis set group =>   1
Atom   9H    basis set group =>   3
Atom  10H    basis set group =>   3
Atom  11H    basis set group =>   3
Atom  12H    basis set group =>   3
Atom  13C    basis set group =>   1
Atom  14C    basis set group =>   1
Atom  15C    basis set group =>   1
Atom  16C    basis set group =>   1
Atom  17C    basis set group =>   1
Atom  18C    basis set group =>   1
Atom  19C    basis set group =>   1
Atom  20H    basis set group =>   3
Atom  21H    basis set group =>   3
Atom  22H    basis set group =>   3
Atom  23H    basis set group =>   3
Atom  24H    basis set group =>   3
Atom  25C    basis set group =>   1
Atom  26C    basis set group =>   1
Atom  27C    basis set group =>   1
Atom  28C    basis set group =>   1
Atom  29C    basis set group =>   1
Atom  30C    basis set group =>   1
Atom  31H    basis set group =>   3
Atom  32H    basis set group =>   3
Atom  33H    basis set group =>   3
Atom  34H    basis set group =>   3
Atom  35H    basis set group =>   3
Atom  36O    basis set group =>   4
Atom  37H    basis set group =>   3
Atom  38H    basis set group =>   3
Atom  39H    basis set group =>   3
Atom  40H    basis set group =>   3
Atom  41H    basis set group =>   3
Atom  42H    basis set group =>   3
Atom  43H    basis set group =>   3
Atom  44H    basis set group =>   3
Atom  45H    basis set group =>   3
------------------------------------------------------------------------------
                           ORCA GTO INTEGRAL CALCULATION
------------------------------------------------------------------------------

                         BASIS SET STATISTICS AND STARTUP INFO

 # of primitive gaussian shells          ...  377
 # of primitive gaussian functions       ...  679
 # of contracted shells                  ...  201
 # of contracted basis functions         ...  419
 Highest angular momentum                ...    2
 Maximum contraction depth               ...    5
 Integral package used                   ... LIBINT
 Integral threshhold            Thresh   ...  2.500e-11
 Primitive cut-off              TCut     ...  2.500e-12


------------------------------ INTEGRAL EVALUATION ----------------------------


 * One electron integrals 
 Pre-screening matrix                    ... done
 Shell pair data                         ... done (   0.005 sec)

-------------------------------------------------------------------------------
                                 ORCA SCF
-------------------------------------------------------------------------------

------------
SCF SETTINGS
------------
Hamiltonian:
 Density Functional     Method          .... DFT(GTOs)
 Exchange Functional    Exchange        .... WB97X-D3
 Correlation Functional Correlation     .... WB97X-D3
 Gradients option       PostSCFGGA      .... off
 Hybrid DFT is turned on
   Fraction HF Exchange ScalHFX         ....  0.195728
   Scaling of DF-GGA-X  ScalDFX         ....  0.000000
   Scaling of DF-GGA-C  ScalDFC         ....  1.000000
   Scaling of DF-LDA-C  ScalLDAC        ....  1.000000
   Perturbative correction              ....  0.000000
   Density functional embedding theory  .... OFF
 Long-range corrected/Screened/Range-Separated Hybrid DFT is turned on
   Amount of maximum screened exact exchange              ....  0.804272
   Range separation parameter mu (erf(mu*r12)/r12)        ....  0.250000


General Settings:
 Integral files         IntName         .... 000202910
 Hartree-Fock type      HFTyp           .... RHF
 Total Charge           Charge          ....    0
 Multiplicity           Mult            ....    1
 Number of Electrons    NEL             ....  154
 Basis Dimension        Dim             ....  419
 Nuclear Repulsion      ENuc            ....   1737.1036121399 Eh

Convergence Acceleration:
 DIIS                   CNVDIIS         .... on
   Start iteration      DIISMaxIt       ....    12
   Startup error        DIISStart       ....  0.200000
   # of expansion vecs  DIISMaxEq       ....     5
   Bias factor          DIISBfac        ....   1.050
   Max. coefficient     DIISMaxC        ....  10.000
 Newton-Raphson         CNVNR           .... off
 SOSCF                  CNVSOSCF        .... on
   Start iteration      SOSCFMaxIt      ....   150
   Startup grad/error   SOSCFStart      ....  0.003300
 Level Shifting         CNVShift        .... on
   Level shift para.    LevelShift      ....    0.2500
   Turn off err/grad.   ShiftErr        ....    0.0010
 Zerner damping         CNVZerner       .... off
 Static damping         CNVDamp         .... on
   Fraction old density DampFac         ....    0.7000
   Max. Damping (<1)    DampMax         ....    0.9800
   Min. Damping (>=0)   DampMin         ....    0.0000
   Turn off err/grad.   DampErr         ....    0.1000
 Fernandez-Rico         CNVRico         .... off

SCF Procedure:
 Maximum # iterations   MaxIter         ....   125
 SCF integral mode      SCFMode         .... Direct
   Integral package                     .... LIBINT
 Reset frequency        DirectResetFreq ....    20
 Integral Threshold     Thresh          ....  2.500e-11 Eh
 Primitive CutOff       TCut            ....  2.500e-12 Eh

Convergence Tolerance:
 Convergence Check Mode ConvCheckMode   .... Total+1el-Energy
 Convergence forced     ConvForced      .... 0
 Energy Change          TolE            ....  1.000e-08 Eh
 1-El. energy change                    ....  1.000e-05 Eh
 Orbital Gradient       TolG            ....  1.000e-05
 Orbital Rotation angle TolX            ....  1.000e-05
 DIIS Error             TolErr          ....  5.000e-07


Diagonalization of the overlap matrix:
Smallest eigenvalue                        ... 2.483e-04
Time for diagonalization                   ...    0.023 sec
Threshold for overlap eigenvalues          ... 1.000e-08
Number of eigenvalues below threshold      ... 0
Time for construction of square roots      ...    0.012 sec
Total time needed                          ...    0.036 sec

-------------------
DFT GRID GENERATION
-------------------

General Integration Accuracy     IntAcc      ...  4.340
Radial Grid Type                 RadialGrid  ... Gauss-Chebyshev
Angular Grid (max. acc.)         AngularGrid ... Lebedev-110
Angular grid pruning method      GridPruning ... 3 (G Style)
Weight generation scheme         WeightScheme... Becke
Basis function cutoff            BFCut       ...    1.0000e-11
Integration weight cutoff        WCut        ...    1.0000e-14
Grids for H and He will be reduced by one unit

# of grid points (after initial pruning)     ...  54732 (   0.0 sec)
# of grid points (after weights+screening)   ...  47960 (   0.5 sec)
nearest neighbour list constructed           ...    0.0 sec
Grid point re-assignment to atoms done       ...    0.0 sec
Grid point division into batches done        ...    0.0 sec
Reduced shell lists constructed in    0.6 sec

Total number of grid points                  ...    47960
Total number of batches                      ...      772
Average number of points per batch           ...       62
Average number of grid points per atom       ...     1043
Average number of shells per batch           ...   106.10 (52.78%)
Average number of basis functions per batch  ...   204.67 (48.85%)
Average number of large shells per batch     ...    69.21 (65.23%)
Average number of large basis fcns per batch ...   134.05 (65.50%)
Maximum spatial batch extension              ...  20.47, 24.54, 20.07 au
Average spatial batch extension              ...   3.27,  3.37,  3.39 au

Time for grid setup =    1.165 sec

------------------------------
INITIAL GUESS: MODEL POTENTIAL
------------------------------
Loading Hartree-Fock densities                     ... done
Calculating cut-offs                               ... done
Setting up the integral package                    ... done
Initializing the effective Hamiltonian             ... done
Starting the Coulomb interaction                   ... done (   1.1 sec)
Reading the grid                                   ... done
Mapping shells                                     ... done
Starting the XC term evaluation                    ... done (   0.9 sec)
  promolecular density results
     # of electrons  =    154.025291954
     EX              =   -119.362169560
     EC              =     -5.143899156
     EX+EC           =   -124.506068716
Transforming the Hamiltonian                       ... done (   0.0 sec)
Diagonalizing the Hamiltonian                      ... done (   0.0 sec)
Back transforming the eigenvectors                 ... done (   0.0 sec)
Now organizing SCF variables                       ... done
                      ------------------
                      INITIAL GUESS DONE (   3.3 sec)
                      ------------------
--------------
SCF ITERATIONS
--------------
ITER       Energy         Delta-E        Max-DP      RMS-DP      [F,P]     Damp
               ***  Starting incremental Fock matrix formation  ***
  0   -867.7184012300   0.000000000000 0.06682675  0.00139708  0.1999995 0.7000
  1   -867.9047956529  -0.186394422889 0.04504850  0.00105277  0.1020479 0.7000
                               ***Turning on DIIS***
  2   -868.0036363473  -0.098840694369 0.07967712  0.00219304  0.0507374 0.0000
  3   -868.1671404667  -0.163504119423 0.03309543  0.00056058  0.0463927 0.0000
  4   -868.1889289300  -0.021788463291 0.00552836  0.00012276  0.0052341 0.0000
  5   -868.1894310347  -0.000502104670 0.00327942  0.00004649  0.0051280 0.0000
                      *** Initiating the SOSCF procedure ***
                           *** Shutting down DIIS ***
                      *** Re-Reading the Fockian *** 
                      *** Removing any level shift *** 
ITER      Energy       Delta-E        Grad      Rot      Max-DP    RMS-DP
  6   -868.18949485  -0.0000638179  0.000316  0.000316  0.001043  0.000025
               *** Restarting incremental Fock matrix formation ***
  7   -868.18950278  -0.0000079288  0.000082  0.000153  0.000480  0.000008
  8   -868.18950305  -0.0000002695  0.000099  0.000142  0.000244  0.000003
  9   -868.18950363  -0.0000005765  0.000012  0.000034  0.000064  0.000001
 10   -868.18950364  -0.0000000091  0.000010  0.000022  0.000028  0.000000
 11   -868.18950364  -0.0000000062  0.000003  0.000005  0.000008  0.000000
                  ***Gradient check signals convergence***
              ***Rediagonalizing the Fockian in SOSCF/NRSCF***

               *****************************************************
               *                     SUCCESS                       *
               *           SCF CONVERGED AFTER  12 CYCLES          *
               *****************************************************

Setting up the final grid:

General Integration Accuracy     IntAcc      ...  4.670
Radial Grid Type                 RadialGrid  ... Gauss-Chebyshev
Angular Grid (max. acc.)         AngularGrid ... Lebedev-302
Angular grid pruning method      GridPruning ... 3 (G Style)
Weight generation scheme         WeightScheme... Becke
Basis function cutoff            BFCut       ...    1.0000e-11
Integration weight cutoff        WCut        ...    1.0000e-14
Grids for H and He will be reduced by one unit

# of grid points (after initial pruning)     ... 215302 (   0.2 sec)
# of grid points (after weights+screening)   ... 183899 (   2.1 sec)
nearest neighbour list constructed           ...    0.0 sec
Grid point re-assignment to atoms done       ...    0.0 sec
Grid point division into batches done        ...    0.5 sec
Reduced shell lists constructed in    2.5 sec

Total number of grid points                  ...   183899
Total number of batches                      ...     2896
Average number of points per batch           ...       63
Average number of grid points per atom       ...     3998
Average number of shells per batch           ...    96.92 (48.22%)
Average number of basis functions per batch  ...   185.48 (44.27%)
Average number of large shells per batch     ...    61.91 (63.88%)
Average number of large basis fcns per batch ...   118.84 (64.07%)
Maximum spatial batch extension              ...  19.05, 20.89, 22.24 au
Average spatial batch extension              ...   2.16,  2.22,  2.22 au

Final grid set up in    4.8 sec
Final integration                            ... done (   4.1 sec)
Change in XC energy                          ...     0.002095840
Integrated number of electrons               ...   154.000362594
Previous integrated no of electrons          ...   154.020142066

----------------
TOTAL SCF ENERGY
----------------

Total Energy       :         -868.18740781 Eh          -23624.58042 eV

Components:
Nuclear Repulsion  :         1737.10361214 Eh           47268.99240 eV
Electronic Energy  :        -2605.29101995 Eh          -70893.57281 eV
One Electron Energy:        -4626.97228332 Eh         -125906.31678 eV
Two Electron Energy:         2021.68126337 Eh           55012.74397 eV

Virial components:
Potential Energy   :        -1727.09030960 Eh          -46996.51658 eV
Kinetic Energy     :          858.90290179 Eh           23371.93616 eV
Virial Ratio       :            2.01080973


DFT components:
N(Alpha)           :       77.000181296894 electrons
N(Beta)            :       77.000181296894 electrons
N(Total)           :      154.000362593788 electrons
E(XC)              :      -87.415720524336 Eh       
DFET-embed. en.    :        0.000000000000 Eh       

---------------
SCF CONVERGENCE
---------------

  Last Energy change         ...   -5.3724e-09  Tolerance :   1.0000e-08
  Last MAX-Density change    ...    4.0546e-06  Tolerance :   1.0000e-07
  Last RMS-Density change    ...    6.0266e-08  Tolerance :   5.0000e-09
  Last Orbital Gradient      ...    9.9481e-07  Tolerance :   1.0000e-05
  Last Orbital Rotation      ...    2.8850e-06  Tolerance :   1.0000e-05

             **** THE GBW FILE WAS UPDATED (000202910.gbw) ****
             **** DENSITY FILE WAS UPDATED (000202910.scfp) ****
             **** ENERGY FILE WAS UPDATED (000202910.en.tmp) ****
             **** THE GBW FILE WAS UPDATED (000202910.gbw) ****
             **** DENSITY FILE WAS UPDATED (000202910.scfp) ****
----------------
ORBITAL ENERGIES
----------------

  NO   OCC          E(Eh)            E(eV) 
   0   2.0000     -19.213017      -522.8128 
   1   2.0000     -14.434974      -392.7956 
   2   2.0000     -10.341488      -281.4062 
   3   2.0000     -10.316520      -280.7268 
   4   2.0000     -10.315274      -280.6929 
   5   2.0000     -10.293477      -280.0998 
   6   2.0000     -10.289801      -279.9997 
   7   2.0000     -10.287639      -279.9409 
   8   2.0000     -10.286100      -279.8990 
   9   2.0000     -10.285476      -279.8820 
  10   2.0000     -10.284273      -279.8493 
  11   2.0000     -10.283369      -279.8247 
  12   2.0000     -10.282849      -279.8105 
  13   2.0000     -10.282494      -279.8009 
  14   2.0000     -10.281684      -279.7788 
  15   2.0000     -10.278973      -279.7051 
  16   2.0000     -10.278888      -279.7028 
  17   2.0000     -10.278445      -279.6907 
  18   2.0000     -10.276343      -279.6335 
  19   2.0000     -10.273021      -279.5431 
  20   2.0000     -10.272844      -279.5383 
  21   2.0000      -1.117677       -30.4135 
  22   2.0000      -1.034877       -28.1604 
  23   2.0000      -0.972508       -26.4633 
  24   2.0000      -0.962881       -26.2013 
  25   2.0000      -0.918170       -24.9847 
  26   2.0000      -0.890756       -24.2387 
  27   2.0000      -0.865213       -23.5436 
  28   2.0000      -0.851898       -23.1813 
  29   2.0000      -0.847612       -23.0647 
  30   2.0000      -0.847343       -23.0574 
  31   2.0000      -0.798208       -21.7203 
  32   2.0000      -0.779228       -21.2039 
  33   2.0000      -0.757815       -20.6212 
  34   2.0000      -0.715661       -19.4741 
  35   2.0000      -0.703419       -19.1410 
  36   2.0000      -0.701599       -19.0915 
  37   2.0000      -0.695698       -18.9309 
  38   2.0000      -0.686324       -18.6758 
  39   2.0000      -0.658867       -17.9287 
  40   2.0000      -0.629670       -17.1342 
  41   2.0000      -0.621519       -16.9124 
  42   2.0000      -0.607855       -16.5406 
  43   2.0000      -0.588080       -16.0025 
  44   2.0000      -0.571570       -15.5532 
  45   2.0000      -0.567908       -15.4536 
  46   2.0000      -0.557308       -15.1651 
  47   2.0000      -0.553432       -15.0596 
  48   2.0000      -0.544090       -14.8055 
  49   2.0000      -0.540646       -14.7117 
  50   2.0000      -0.533641       -14.5211 
  51   2.0000      -0.527746       -14.3607 
  52   2.0000      -0.518993       -14.1225 
  53   2.0000      -0.515745       -14.0341 
  54   2.0000      -0.509538       -13.8652 
  55   2.0000      -0.502812       -13.6822 
  56   2.0000      -0.494913       -13.4673 
  57   2.0000      -0.488245       -13.2858 
  58   2.0000      -0.475944       -12.9511 
  59   2.0000      -0.470175       -12.7941 
  60   2.0000      -0.462378       -12.5819 
  61   2.0000      -0.456403       -12.4194 
  62   2.0000      -0.449766       -12.2388 
  63   2.0000      -0.443666       -12.0728 
  64   2.0000      -0.440857       -11.9963 
  65   2.0000      -0.437020       -11.8919 
  66   2.0000      -0.430288       -11.7087 
  67   2.0000      -0.429181       -11.6786 
  68   2.0000      -0.426790       -11.6135 
  69   2.0000      -0.413885       -11.2624 
  70   2.0000      -0.406269       -11.0551 
  71   2.0000      -0.356128        -9.6907 
  72   2.0000      -0.342081        -9.3085 
  73   2.0000      -0.338129        -9.2010 
  74   2.0000      -0.331302        -9.0152 
  75   2.0000      -0.326207        -8.8765 
  76   2.0000      -0.313381        -8.5275 
  77   0.0000       0.063778         1.7355 
  78   0.0000       0.070386         1.9153 
  79   0.0000       0.084091         2.2882 
  80   0.0000       0.092945         2.5291 
  81   0.0000       0.128194         3.4883 
  82   0.0000       0.144888         3.9426 
  83   0.0000       0.148642         4.0448 
  84   0.0000       0.160286         4.3616 
  85   0.0000       0.166755         4.5376 
  86   0.0000       0.175346         4.7714 
  87   0.0000       0.181339         4.9345 
  88   0.0000       0.196057         5.3350 
  89   0.0000       0.200657         5.4602 
  90   0.0000       0.205585         5.5943 
  91   0.0000       0.211392         5.7523 
  92   0.0000       0.212989         5.7957 
  93   0.0000       0.216428         5.8893 
  94   0.0000       0.225942         6.1482 
  95   0.0000       0.229738         6.2515 
  96   0.0000       0.236452         6.4342 
  97   0.0000       0.240273         6.5382 
  98   0.0000       0.240685         6.5494 
  99   0.0000       0.245876         6.6906 
 100   0.0000       0.249816         6.7978 
 101   0.0000       0.254574         6.9273 
 102   0.0000       0.258918         7.0455 
 103   0.0000       0.265418         7.2224 
 104   0.0000       0.271857         7.3976 
 105   0.0000       0.274404         7.4669 
 106   0.0000       0.285785         7.7766 
 107   0.0000       0.287370         7.8197 
 108   0.0000       0.294356         8.0098 
 109   0.0000       0.309291         8.4162 
 110   0.0000       0.317976         8.6526 
 111   0.0000       0.322883         8.7861 
 112   0.0000       0.338403         9.2084 
 113   0.0000       0.341187         9.2842 
 114   0.0000       0.349092         9.4993 
 115   0.0000       0.366608         9.9759 
 116   0.0000       0.368117        10.0170 
 117   0.0000       0.374768        10.1980 
 118   0.0000       0.389510        10.5991 
 119   0.0000       0.391960        10.6658 
 120   0.0000       0.397560        10.8182 
 121   0.0000       0.412022        11.2117 
 122   0.0000       0.414600        11.2818 
 123   0.0000       0.429682        11.6922 
 124   0.0000       0.447975        12.1900 
 125   0.0000       0.448565        12.2061 
 126   0.0000       0.465436        12.6652 
 127   0.0000       0.473549        12.8859 
 128   0.0000       0.489615        13.3231 
 129   0.0000       0.500066        13.6075 
 130   0.0000       0.505255        13.7487 
 131   0.0000       0.510421        13.8893 
 132   0.0000       0.515145        14.0178 
 133   0.0000       0.520090        14.1524 
 134   0.0000       0.526157        14.3175 
 135   0.0000       0.534045        14.5321 
 136   0.0000       0.540005        14.6943 
 137   0.0000       0.543487        14.7890 
 138   0.0000       0.550550        14.9812 
 139   0.0000       0.563570        15.3355 
 140   0.0000       0.573633        15.6093 
 141   0.0000       0.583031        15.8651 
 142   0.0000       0.588208        16.0060 
 143   0.0000       0.591954        16.1079 
 144   0.0000       0.594447        16.1757 
 145   0.0000       0.600415        16.3381 
 146   0.0000       0.608106        16.5474 
 147   0.0000       0.614885        16.7319 
 148   0.0000       0.620041        16.8722 
 149   0.0000       0.627394        17.0723 
 150   0.0000       0.642741        17.4899 
 151   0.0000       0.645325        17.5602 
 152   0.0000       0.655163        17.8279 
 153   0.0000       0.655702        17.8426 
 154   0.0000       0.668500        18.1908 
 155   0.0000       0.675039        18.3687 
 156   0.0000       0.685153        18.6440 
 157   0.0000       0.691480        18.8161 
 158   0.0000       0.699587        19.0367 
 159   0.0000       0.702830        19.1250 
 160   0.0000       0.709037        19.2939 
 161   0.0000       0.718358        19.5475 
 162   0.0000       0.721432        19.6312 
 163   0.0000       0.727441        19.7947 
 164   0.0000       0.734565        19.9885 
 165   0.0000       0.741739        20.1837 
 166   0.0000       0.746713        20.3191 
 167   0.0000       0.750148        20.4126 
 168   0.0000       0.756800        20.5936 
 169   0.0000       0.759955        20.6794 
 170   0.0000       0.765383        20.8271 
 171   0.0000       0.766394        20.8546 
 172   0.0000       0.771873        21.0037 
 173   0.0000       0.775476        21.1018 
 174   0.0000       0.779671        21.2159 
 175   0.0000       0.781975        21.2786 
 176   0.0000       0.786501        21.4018 
 177   0.0000       0.788528        21.4569 
 178   0.0000       0.794114        21.6089 
 179   0.0000       0.795657        21.6509 
 180   0.0000       0.806063        21.9341 
 181   0.0000       0.808338        21.9960 
 182   0.0000       0.810341        22.0505 
 183   0.0000       0.815461        22.1898 
 184   0.0000       0.819608        22.3027 
 185   0.0000       0.820951        22.3392 
 186   0.0000       0.824752        22.4426 
 187   0.0000       0.826196        22.4819 
 188   0.0000       0.833979        22.6937 
 189   0.0000       0.843454        22.9516 
 190   0.0000       0.845232        22.9999 
 191   0.0000       0.852761        23.2048 
 192   0.0000       0.858964        23.3736 
 193   0.0000       0.861329        23.4380 
 194   0.0000       0.869702        23.6658 
 195   0.0000       0.870168        23.6785 
 196   0.0000       0.880875        23.9698 
 197   0.0000       0.882757        24.0210 
 198   0.0000       0.885313        24.0906 
 199   0.0000       0.891701        24.2644 
 200   0.0000       0.898401        24.4467 
 201   0.0000       0.905082        24.6285 
 202   0.0000       0.917728        24.9726 
 203   0.0000       0.923028        25.1169 
 204   0.0000       0.940320        25.5874 
 205   0.0000       0.944399        25.6984 
 206   0.0000       0.967202        26.3189 
 207   0.0000       0.971356        26.4319 
 208   0.0000       0.987240        26.8642 
 209   0.0000       0.990236        26.9457 
 210   0.0000       1.001785        27.2600 
 211   0.0000       1.028819        27.9956 
 212   0.0000       1.058513        28.8036 
 213   0.0000       1.065577        28.9958 
 214   0.0000       1.089511        29.6471 
 215   0.0000       1.097550        29.8659 
 216   0.0000       1.109528        30.1918 
 217   0.0000       1.123291        30.5663 
 218   0.0000       1.149375        31.2761 
 219   0.0000       1.161566        31.6078 
 220   0.0000       1.178179        32.0599 
 221   0.0000       1.188155        32.3313 
 222   0.0000       1.203916        32.7602 
 223   0.0000       1.209912        32.9234 
 224   0.0000       1.230463        33.4826 
 225   0.0000       1.246053        33.9068 
 226   0.0000       1.262694        34.3596 
 227   0.0000       1.290841        35.1256 
 228   0.0000       1.307727        35.5851 
 229   0.0000       1.315814        35.8051 
 230   0.0000       1.323506        36.0144 
 231   0.0000       1.326434        36.0941 
 232   0.0000       1.343127        36.5483 
 233   0.0000       1.353723        36.8367 
 234   0.0000       1.356296        36.9067 
 235   0.0000       1.358341        36.9623 
 236   0.0000       1.367675        37.2163 
 237   0.0000       1.376138        37.4466 
 238   0.0000       1.383110        37.6363 
 239   0.0000       1.397339        38.0235 
 240   0.0000       1.401651        38.1409 
 241   0.0000       1.406615        38.2759 
 242   0.0000       1.416068        38.5332 
 243   0.0000       1.419029        38.6137 
 244   0.0000       1.424483        38.7621 
 245   0.0000       1.440547        39.1993 
 246   0.0000       1.445128        39.3239 
 247   0.0000       1.451839        39.5066 
 248   0.0000       1.464465        39.8501 
 249   0.0000       1.477076        40.1933 
 250   0.0000       1.495718        40.7005 
 251   0.0000       1.545406        42.0526 
 252   0.0000       1.556229        42.3471 
 253   0.0000       1.588438        43.2236 
 254   0.0000       1.604542        43.6618 
 255   0.0000       1.624914        44.2162 
 256   0.0000       1.641631        44.6710 
 257   0.0000       1.645767        44.7836 
 258   0.0000       1.664237        45.2862 
 259   0.0000       1.677389        45.6441 
 260   0.0000       1.689426        45.9716 
 261   0.0000       1.711858        46.5820 
 262   0.0000       1.733107        47.1603 
 263   0.0000       1.737745        47.2865 
 264   0.0000       1.762718        47.9660 
 265   0.0000       1.780035        48.4372 
 266   0.0000       1.782672        48.5090 
 267   0.0000       1.794861        48.8407 
 268   0.0000       1.798469        48.9388 
 269   0.0000       1.807649        49.1886 
 270   0.0000       1.813947        49.3600 
 271   0.0000       1.831079        49.8262 
 272   0.0000       1.838640        50.0320 
 273   0.0000       1.841618        50.1130 
 274   0.0000       1.845210        50.2107 
 275   0.0000       1.856606        50.5208 
 276   0.0000       1.859910        50.6107 
 277   0.0000       1.862747        50.6879 
 278   0.0000       1.868019        50.8314 
 279   0.0000       1.874335        51.0032 
 280   0.0000       1.879550        51.1451 
 281   0.0000       1.883989        51.2659 
 282   0.0000       1.887617        51.3647 
 283   0.0000       1.890541        51.4442 
 284   0.0000       1.894506        51.5521 
 285   0.0000       1.900088        51.7040 
 286   0.0000       1.904690        51.8292 
 287   0.0000       1.907277        51.8996 
 288   0.0000       1.912659        52.0461 
 289   0.0000       1.916755        52.1575 
 290   0.0000       1.921057        52.2746 
 291   0.0000       1.926704        52.4283 
 292   0.0000       1.936083        52.6835 
 293   0.0000       1.940146        52.7941 
 294   0.0000       1.942795        52.8661 
 295   0.0000       1.947949        53.0064 
 296   0.0000       1.953242        53.1504 
 297   0.0000       1.961178        53.3664 
 298   0.0000       1.974580        53.7311 
 299   0.0000       1.978997        53.8512 
 300   0.0000       1.988719        54.1158 
 301   0.0000       2.000242        54.4294 
 302   0.0000       2.010013        54.6952 
 303   0.0000       2.021400        55.0051 
 304   0.0000       2.037883        55.4536 
 305   0.0000       2.039059        55.4856 
 306   0.0000       2.048151        55.7330 
 307   0.0000       2.058738        56.0211 
 308   0.0000       2.059946        56.0540 
 309   0.0000       2.063036        56.1381 
 310   0.0000       2.071050        56.3561 
 311   0.0000       2.077363        56.5279 
 312   0.0000       2.081143        56.6308 
 313   0.0000       2.099455        57.1291 
 314   0.0000       2.100748        57.1642 
 315   0.0000       2.106248        57.3139 
 316   0.0000       2.108611        57.3782 
 317   0.0000       2.117840        57.6294 
 318   0.0000       2.122311        57.7510 
 319   0.0000       2.127521        57.8928 
 320   0.0000       2.133367        58.0519 
 321   0.0000       2.141961        58.2857 
 322   0.0000       2.144605        58.3577 
 323   0.0000       2.162141        58.8348 
 324   0.0000       2.173143        59.1342 
 325   0.0000       2.184822        59.4520 
 326   0.0000       2.215858        60.2966 
 327   0.0000       2.223995        60.5180 
 328   0.0000       2.241243        60.9873 
 329   0.0000       2.252443        61.2921 
 330   0.0000       2.259928        61.4958 
 331   0.0000       2.260567        61.5132 
 332   0.0000       2.267671        61.7065 
 333   0.0000       2.286696        62.2242 
 334   0.0000       2.288157        62.2639 
 335   0.0000       2.300110        62.5892 
 336   0.0000       2.315322        63.0031 
 337   0.0000       2.318475        63.0889 
 338   0.0000       2.324058        63.2408 
 339   0.0000       2.350278        63.9543 
 340   0.0000       2.388082        64.9830 
 341   0.0000       2.404909        65.4409 
 342   0.0000       2.417681        65.7885 
 343   0.0000       2.418349        65.8066 
 344   0.0000       2.423594        65.9493 
 345   0.0000       2.427456        66.0544 
 346   0.0000       2.433725        66.2250 
 347   0.0000       2.441652        66.4407 
 348   0.0000       2.451753        66.7156 
 349   0.0000       2.460804        66.9619 
 350   0.0000       2.466612        67.1199 
 351   0.0000       2.470320        67.2208 
 352   0.0000       2.477748        67.4230 
 353   0.0000       2.488341        67.7112 
 354   0.0000       2.492400        67.8217 
 355   0.0000       2.509991        68.3003 
 356   0.0000       2.523957        68.6804 
 357   0.0000       2.534236        68.9601 
 358   0.0000       2.556389        69.5629 
 359   0.0000       2.562412        69.7268 
 360   0.0000       2.598584        70.7111 
 361   0.0000       2.628171        71.5162 
 362   0.0000       2.646254        72.0082 
 363   0.0000       2.652544        72.1794 
 364   0.0000       2.657314        72.3092 
 365   0.0000       2.682238        72.9874 
 366   0.0000       2.688003        73.1443 
 367   0.0000       2.699082        73.4458 
 368   0.0000       2.725154        74.1552 
 369   0.0000       2.735476        74.4361 
 370   0.0000       2.748216        74.7828 
 371   0.0000       2.751485        74.8717 
 372   0.0000       2.756541        75.0093 
 373   0.0000       2.769336        75.3575 
 374   0.0000       2.771668        75.4209 
 375   0.0000       2.774904        75.5090 
 376   0.0000       2.788845        75.8883 
 377   0.0000       2.811514        76.5052 
 378   0.0000       2.843690        77.3807 
 379   0.0000       2.855234        77.6949 
 380   0.0000       2.867008        78.0153 
 381   0.0000       2.874560        78.2208 
 382   0.0000       2.875981        78.2594 
 383   0.0000       2.896961        78.8303 
 384   0.0000       2.912477        79.2525 
 385   0.0000       2.927810        79.6698 
 386   0.0000       2.933034        79.8119 
 387   0.0000       2.965031        80.6826 
 388   0.0000       2.978116        81.0387 
 389   0.0000       2.994036        81.4719 
 390   0.0000       3.011904        81.9581 
 391   0.0000       3.016135        82.0732 
 392   0.0000       3.027796        82.3905 
 393   0.0000       3.029118        82.4265 
 394   0.0000       3.032164        82.5094 
 395   0.0000       3.036331        82.6228 
 396   0.0000       3.059304        83.2479 
 397   0.0000       3.081927        83.8635 
 398   0.0000       3.103335        84.4461 
 399   0.0000       3.120827        84.9220 
 400   0.0000       3.137380        85.3724 
 401   0.0000       3.142986        85.5250 
 402   0.0000       3.150920        85.7409 
 403   0.0000       3.176692        86.4422 
 404   0.0000       3.213690        87.4490 
 405   0.0000       3.214518        87.4715 
 406   0.0000       3.225060        87.7583 
 407   0.0000       3.241145        88.1960 
 408   0.0000       3.266795        88.8940 
 409   0.0000       3.284639        89.3796 
 410   0.0000       3.293086        89.6094 
 411   0.0000       3.324441        90.4626 
 412   0.0000       3.388669        92.2104 
 413   0.0000       3.407866        92.7327 
 414   0.0000       3.507541        95.4451 
 415   0.0000       3.602883        98.0394 
 416   0.0000       3.788523       103.0909 
 417   0.0000       3.792077       103.1877 
 418   0.0000       4.000592       108.8616 

                    ********************************
                    * MULLIKEN POPULATION ANALYSIS *
                    ********************************

-----------------------
MULLIKEN ATOMIC CHARGES
-----------------------
   0 C :   -0.057791
   1 C :   -0.079006
   2 C :    0.085306
   3 N :   -0.379304
   4 H :    0.128215
   5 C :    0.156058
   6 H :    0.038748
   7 C :   -0.147615
   8 C :    0.040197
   9 H :    0.034779
  10 H :    0.028449
  11 H :    0.020257
  12 H :    0.015423
  13 C :    0.108510
  14 C :    0.029350
  15 C :   -0.039537
  16 C :   -0.000617
  17 C :   -0.012963
  18 C :   -0.007463
  19 C :   -0.036059
  20 H :   -0.010277
  21 H :    0.007068
  22 H :    0.009952
  23 H :    0.006229
  24 H :   -0.003239
  25 C :    0.019989
  26 C :   -0.044079
  27 C :   -0.009292
  28 C :   -0.009033
  29 C :   -0.002865
  30 C :   -0.006024
  31 H :    0.011468
  32 H :    0.007743
  33 H :    0.008079
  34 H :    0.003189
  35 H :   -0.006213
  36 O :   -0.314047
  37 H :    0.178356
  38 H :    0.010330
  39 H :    0.013958
  40 H :    0.030592
  41 H :    0.033390
  42 H :    0.025637
  43 H :    0.047656
  44 H :    0.035534
  45 H :    0.030963
Sum of atomic charges:    0.0000000

--------------------------------
MULLIKEN REDUCED ORBITAL CHARGES
--------------------------------
  0 C s       :     3.015693  s :     3.015693
      pz      :     0.969298  p :     3.013400
      px      :     1.026455
      py      :     1.017647
      dz2     :     0.007158  d :     0.028698
      dxz     :     0.006845
      dyz     :     0.003882
      dx2y2   :     0.006972
      dxy     :     0.003839
  1 C s       :     3.039884  s :     3.039884
      pz      :     0.969066  p :     3.002761
      px      :     1.020498
      py      :     1.013197
      dz2     :     0.010719  d :     0.036361
      dxz     :     0.007500
      dyz     :     0.005405
      dx2y2   :     0.008371
      dxy     :     0.004365
  2 C s       :     2.999501  s :     2.999501
      pz      :     1.002832  p :     2.864033
      px      :     0.846353
      py      :     1.014848
      dz2     :     0.010091  d :     0.051160
      dxz     :     0.014394
      dyz     :     0.003785
      dx2y2   :     0.013441
      dxy     :     0.009449
  3 N s       :     3.491738  s :     3.491738
      pz      :     1.538369  p :     3.863954
      px      :     1.212914
      py      :     1.112672
      dz2     :     0.004808  d :     0.023612
      dxz     :     0.004849
      dyz     :     0.002594
      dx2y2   :     0.007570
      dxy     :     0.003792
  4 H s       :     0.829435  s :     0.829435
      pz      :     0.011303  p :     0.042350
      px      :     0.007910
      py      :     0.023137
  5 C s       :     2.958585  s :     2.958585
      pz      :     0.884639  p :     2.835554
      px      :     0.928441
      py      :     1.022473
      dz2     :     0.014820  d :     0.049804
      dxz     :     0.011777
      dyz     :     0.005407
      dx2y2   :     0.011258
      dxy     :     0.006542
  6 H s       :     0.938590  s :     0.938590
      pz      :     0.003684  p :     0.022663
      px      :     0.003396
      py      :     0.015582
  7 C s       :     3.100760  s :     3.100760
      pz      :     1.003016  p :     3.005174
      px      :     0.992738
      py      :     1.009420
      dz2     :     0.007385  d :     0.041681
      dxz     :     0.007624
      dyz     :     0.008590
      dx2y2   :     0.010373
      dxy     :     0.007710
  8 C s       :     2.962534  s :     2.962534
      pz      :     0.995535  p :     2.969610
      px      :     1.028893
      py      :     0.945181
      dz2     :     0.005466  d :     0.027659
      dxz     :     0.003895
      dyz     :     0.006568
      dx2y2   :     0.007372
      dxy     :     0.004358
  9 H s       :     0.940688  s :     0.940688
      pz      :     0.005285  p :     0.024532
      px      :     0.014766
      py      :     0.004480
 10 H s       :     0.946796  s :     0.946796
      pz      :     0.012784  p :     0.024755
      px      :     0.006460
      py      :     0.005510
 11 H s       :     0.956031  s :     0.956031
      pz      :     0.010986  p :     0.023712
      px      :     0.006808
      py      :     0.005918
 12 H s       :     0.963095  s :     0.963095
      pz      :     0.009659  p :     0.021482
      px      :     0.006675
      py      :     0.005148
 13 C s       :     3.034464  s :     3.034464
      pz      :     0.894337  p :     2.778364
      px      :     0.956822
      py      :     0.927205
      dz2     :     0.019513  d :     0.078662
      dxz     :     0.015152
      dyz     :     0.015295
      dx2y2   :     0.017774
      dxy     :     0.010927
 14 C s       :     3.058975  s :     3.058975
      pz      :     0.936144  p :     2.870162
      px      :     0.961393
      py      :     0.972625
      dz2     :     0.008912  d :     0.041513
      dxz     :     0.005830
      dyz     :     0.009535
      dx2y2   :     0.008919
      dxy     :     0.008317
 15 C s       :     3.223832  s :     3.223832
      pz      :     0.927982  p :     2.780684
      px      :     0.973660
      py      :     0.879042
      dz2     :     0.005754  d :     0.035021
[...]
  2 C s       :     2.837343  s :     2.837343
      pz      :     1.048761  p :     3.023921
      px      :     0.942034
      py      :     1.033126
      dz2     :     0.024106  d :     0.119642
      dxz     :     0.036729
      dyz     :     0.007139
      dx2y2   :     0.028835
      dxy     :     0.022834
  3 N s       :     3.115304  s :     3.115304
      pz      :     1.505650  p :     3.920472
      px      :     1.236340
      py      :     1.178482
      dz2     :     0.009608  d :     0.051176
      dxz     :     0.010489
      dyz     :     0.003783
      dx2y2   :     0.017169
      dxy     :     0.010127
  4 H s       :     0.810927  s :     0.810927
      pz      :     0.035761  p :     0.124794
      px      :     0.025020
      py      :     0.064012
  5 C s       :     2.835183  s :     2.835183
      pz      :     0.973916  p :     3.018207
      px      :     0.981165
      py      :     1.063126
      dz2     :     0.033615  d :     0.117514
      dxz     :     0.028456
      dyz     :     0.014175
      dx2y2   :     0.029081
      dxy     :     0.012187
  6 H s       :     0.906429  s :     0.906429
      pz      :     0.011325  p :     0.067038
      px      :     0.012412
      py      :     0.043301
  7 C s       :     2.849220  s :     2.849220
      pz      :     1.033503  p :     3.100705
      px      :     1.030961
      py      :     1.036241
      dz2     :     0.018245  d :     0.100560
      dxz     :     0.019030
      dyz     :     0.020407
      dx2y2   :     0.026392
      dxy     :     0.016486
  8 C s       :     2.834521  s :     2.834521
      pz      :     1.062439  p :     3.154169
      px      :     1.075562
      py      :     1.016168
      dz2     :     0.014235  d :     0.070972
      dxz     :     0.009121
      dyz     :     0.016834
      dx2y2   :     0.020485
      dxy     :     0.010297
  9 H s       :     0.898405  s :     0.898405
      pz      :     0.012859  p :     0.066715
      px      :     0.040268
      py      :     0.013588
 10 H s       :     0.908802  s :     0.908802
      pz      :     0.031302  p :     0.067025
      px      :     0.018418
      py      :     0.017305
 11 H s       :     0.912039  s :     0.912039
      pz      :     0.031105  p :     0.064871
      px      :     0.015310
      py      :     0.018456
 12 H s       :     0.906901  s :     0.906901
      pz      :     0.029453  p :     0.068314
      px      :     0.021523
      py      :     0.017338
 13 C s       :     2.840732  s :     2.840732
      pz      :     0.936940  p :     2.926339
      px      :     0.992422
      py      :     0.996977
      dz2     :     0.042622  d :     0.173805
      dxz     :     0.031476
      dyz     :     0.035159
      dx2y2   :     0.043141
      dxy     :     0.021407
 14 C s       :     2.864678  s :     2.864678
      pz      :     1.060628  p :     3.057371
      px      :     0.966840
      py      :     1.029903
      dz2     :     0.026088  d :     0.103315
      dxz     :     0.015344
      dyz     :     0.029958
      dx2y2   :     0.017673
      dxy     :     0.014252
 15 C s       :     2.858119  s :     2.858119
      pz      :     1.040858  p :     3.079133
      px      :     0.984802
      py      :     1.053473
      dz2     :     0.018748  d :     0.089959
      dxz     :     0.009760
      dyz     :     0.030237
      dx2y2   :     0.015924
      dxy     :     0.015289
 16 C s       :     2.859339  s :     2.859339
      pz      :     1.035764  p :     3.081361
      px      :     0.981899
      py      :     1.063698
      dz2     :     0.019304  d :     0.091164
      dxz     :     0.010525
      dyz     :     0.030244
      dx2y2   :     0.015366
      dxy     :     0.015724
 17 C s       :     2.859234  s :     2.859234
      pz      :     1.056468  p :     3.089499
      px      :     0.994121
      py      :     1.038910
      dz2     :     0.025978  d :     0.090539
      dxz     :     0.015532
      dyz     :     0.025672
      dx2y2   :     0.013821
      dxy     :     0.009537
 18 C s       :     2.858572  s :     2.858572
      pz      :     1.036238  p :     3.082662
      px      :     0.989139
      py      :     1.057285
      dz2     :     0.019353  d :     0.091269
      dxz     :     0.009682
      dyz     :     0.030048
      dx2y2   :     0.016268
      dxy     :     0.015919
 19 C s       :     2.856254  s :     2.856254
      pz      :     1.034791  p :     3.089876
      px      :     0.995835
      py      :     1.059251
      dz2     :     0.019140  d :     0.090683
      dxz     :     0.010339
      dyz     :     0.030016
      dx2y2   :     0.015745
      dxy     :     0.015442
 20 H s       :     0.908208  s :     0.908208
      pz      :     0.031185  p :     0.068377
      px      :     0.020283
      py      :     0.016909
 21 H s       :     0.902249  s :     0.902249
      pz      :     0.031205  p :     0.066502
      px      :     0.015157
      py      :     0.020141
 22 H s       :     0.902202  s :     0.902202
      pz      :     0.011567  p :     0.066809
      px      :     0.014896
      py      :     0.040346
 23 H s       :     0.902268  s :     0.902268
      pz      :     0.030724  p :     0.066507
      px      :     0.019327
      py      :     0.016457
 24 H s       :     0.897447  s :     0.897447
      pz      :     0.031821  p :     0.072174
      px      :     0.014769
      py      :     0.025584
 25 C s       :     2.859023  s :     2.859023
      pz      :     1.070469  p :     3.055522
      px      :     1.026530
      py      :     0.958523
      dz2     :     0.027858  d :     0.103738
      dxz     :     0.032712
      dyz     :     0.014085
      dx2y2   :     0.016277
      dxy     :     0.012807
 26 C s       :     2.854757  s :     2.854757
      pz      :     1.033566  p :     3.088662
      px      :     1.063406
      py      :     0.991690
      dz2     :     0.022213  d :     0.090810
      dxz     :     0.030208
      dyz     :     0.007077
      dx2y2   :     0.016295
      dxy     :     0.015017
 27 C s       :     2.857935  s :     2.857935
      pz      :     1.047489  p :     3.084135
      px      :     1.055717
      py      :     0.980929
      dz2     :     0.021650  d :     0.091333
      dxz     :     0.033683
      dyz     :     0.009753
      dx2y2   :     0.013842
      dxy     :     0.012405
 28 C s       :     2.859013  s :     2.859013
      pz      :     1.061490  p :     3.088441
      px      :     1.042535
      py      :     0.984416
      dz2     :     0.027503  d :     0.090911
      dxz     :     0.028908
      dyz     :     0.014264
      dx2y2   :     0.013061
      dxy     :     0.007174
 29 C s       :     2.858626  s :     2.858626
      pz      :     1.036018  p :     3.080178
      px      :     1.069979
      py      :     0.974181
      dz2     :     0.021963  d :     0.091413
      dxz     :     0.031047
      dyz     :     0.007210
      dx2y2   :     0.016094
      dxy     :     0.015098
 30 C s       :     2.857428  s :     2.857428
      pz      :     1.047882  p :     3.073006
      px      :     1.055759
      py      :     0.969365
      dz2     :     0.021522  d :     0.089805
      dxz     :     0.032780
      dyz     :     0.009745
      dx2y2   :     0.013870
      dxy     :     0.011888
 31 H s       :     0.893999  s :     0.893999
      pz      :     0.026369  p :     0.071857
      px      :     0.030905
      py      :     0.014583
 32 H s       :     0.903752  s :     0.903752
      pz      :     0.036676  p :     0.066616
      px      :     0.013491
      py      :     0.016449
 33 H s       :     0.903261  s :     0.903261
      pz      :     0.012523  p :     0.066751
      px      :     0.039940
      py      :     0.014288
 34 H s       :     0.903044  s :     0.903044
      pz      :     0.026937  p :     0.066533
      px      :     0.024755
      py      :     0.014842
 35 H s       :     0.910061  s :     0.910061
      pz      :     0.037015  p :     0.068368
      px      :     0.014035
      py      :     0.017317
 36 O s       :     3.429898  s :     3.429898
      pz      :     1.572828  p :     4.664844
      px      :     1.345469
      py      :     1.746547
      dz2     :     0.005174  d :     0.023872
      dxz     :     0.007637
      dyz     :     0.004478
      dx2y2   :     0.005200
      dxy     :     0.001383
 37 H s       :     0.752466  s :     0.752466
      pz      :     0.055308  p :     0.220859
      px      :     0.119095
      py      :     0.046457
 38 H s       :     0.924979  s :     0.924979
      pz      :     0.034462  p :     0.064622
      px      :     0.013018
      py      :     0.017142
 39 H s       :     0.928555  s :     0.928555
      pz      :     0.032342  p :     0.063854
      px      :     0.019212
      py      :     0.012301
 40 H s       :     0.911013  s :     0.911013
      pz      :     0.012435  p :     0.063390
      px      :     0.010828
      py      :     0.040128
 41 H s       :     0.904361  s :     0.904361
      pz      :     0.012821  p :     0.064752
      px      :     0.034023
      py      :     0.017908
 42 H s       :     0.912788  s :     0.912788
      pz      :     0.012585  p :     0.064443
      px      :     0.013931
      py      :     0.037927
 43 H s       :     0.905268  s :     0.905268
      pz      :     0.013589  p :     0.066151
      px      :     0.033683
      py      :     0.018879
 44 H s       :     0.906348  s :     0.906348
      pz      :     0.028170  p :     0.064678
      px      :     0.022748
      py      :     0.013761
 45 H s       :     0.907356  s :     0.907356
      pz      :     0.012110  p :     0.064585
      px      :     0.013827
      py      :     0.038647


                      *****************************
                      * MAYER POPULATION ANALYSIS *
                      *****************************

  NA   - Mulliken gross atomic population
  ZA   - Total nuclear charge
  QA   - Mulliken gross atomic charge
  VA   - Mayer's total valence
  BVA  - Mayer's bonded valence
  FA   - Mayer's free valence

  ATOM       NA         ZA         QA         VA         BVA        FA
  0 C      6.0723     6.0000    -0.0723     3.9998     3.9998     0.0000
  1 C      6.0824     6.0000    -0.0824     4.0834     4.0834    -0.0000
  2 C      5.9220     6.0000     0.0780     3.9836     3.9836    -0.0000
  3 N      7.3804     7.0000    -0.3804     3.0919     3.0919    -0.0000
  4 H      0.8693     1.0000     0.1307     0.9832     0.9832     0.0000
  5 C      5.8396     6.0000     0.1604     3.9342     3.9342     0.0000
  6 H      0.9689     1.0000     0.0311     1.0091     1.0091    -0.0000
  7 C      6.1542     6.0000    -0.1542     4.0805     4.0805    -0.0000
  8 C      5.9805     6.0000     0.0195     3.9412     3.9412    -0.0000
  9 H      0.9514     1.0000     0.0486     1.0013     1.0013    -0.0000
 10 H      0.9721     1.0000     0.0279     1.0216     1.0216     0.0000
 11 H      0.9766     1.0000     0.0234     0.9882     0.9882     0.0000
 12 H      0.9830     1.0000     0.0170     0.9774     0.9774     0.0000
 13 C      5.8726     6.0000     0.1274     3.8907     3.8907     0.0000
 14 C      5.9936     6.0000     0.0064     3.7766     3.7766     0.0000
 15 C      6.0341     6.0000    -0.0341     3.9195     3.9195    -0.0000
 16 C      6.0127     6.0000    -0.0127     3.8350     3.8350     0.0000
 17 C      6.0164     6.0000    -0.0164     3.8448     3.8448    -0.0000
 18 C      6.0185     6.0000    -0.0185     3.8911     3.8911     0.0000
 19 C      6.0433     6.0000    -0.0433     3.8913     3.8913     0.0000
 20 H      1.0039     1.0000    -0.0039     0.9886     0.9886     0.0000
 21 H      0.9856     1.0000     0.0144     0.9835     0.9835    -0.0000
 22 H      0.9815     1.0000     0.0185     0.9840     0.9840     0.0000
 23 H      0.9834     1.0000     0.0166     0.9841     0.9841    -0.0000
 24 H      0.9841     1.0000     0.0159     1.0235     1.0235    -0.0000
 25 C      5.9909     6.0000     0.0091     3.7889     3.7889    -0.0000
 26 C      6.0420     6.0000    -0.0420     3.8978     3.8978    -0.0000
 27 C      6.0200     6.0000    -0.0200     3.8968     3.8968    -0.0000
 28 C      6.0132     6.0000    -0.0132     3.8480     3.8480     0.0000
 29 C      6.0104     6.0000    -0.0104     3.8308     3.8308    -0.0000
 30 C      6.0172     6.0000    -0.0172     3.9104     3.9104     0.0000
 31 H      0.9754     1.0000     0.0246     1.0183     1.0183     0.0000
 32 H      0.9871     1.0000     0.0129     0.9844     0.9844     0.0000
 33 H      0.9842     1.0000     0.0158     0.9843     0.9843     0.0000
 34 H      0.9868     1.0000     0.0132     0.9834     0.9834    -0.0000
 35 H      1.0098     1.0000    -0.0098     0.9891     0.9891    -0.0000
 36 O      8.3145     8.0000    -0.3145     2.1389     2.1389     0.0000
 37 H      0.8236     1.0000     0.1764     1.0899     1.0899     0.0000
 38 H      0.9837     1.0000     0.0163     0.9825     0.9825     0.0000
 39 H      0.9845     1.0000     0.0155     0.9748     0.9748     0.0000
 40 H      0.9614     1.0000     0.0386     0.9915     0.9915     0.0000
 41 H      0.9645     1.0000     0.0355     0.9788     0.9788    -0.0000
 42 H      0.9731     1.0000     0.0269     0.9805     0.9805     0.0000
 43 H      0.9488     1.0000     0.0512     1.0009     1.0009    -0.0000
 44 H      0.9616     1.0000     0.0384     0.9848     0.9848    -0.0000
 45 H      0.9648     1.0000     0.0352     0.9936     0.9936     0.0000

  Mayer bond orders larger than 0.100000
B(  0-C ,  1-C ) :   1.0768 B(  0-C , 43-H ) :   0.9714 B(  0-C , 44-H ) :   0.9714 
B(  0-C , 45-H ) :   0.9746 B(  1-C ,  2-C ) :   1.0740 B(  1-C , 41-H ) :   0.9495 
B(  1-C , 42-H ) :   0.9535 B(  2-C ,  3-N ) :   0.9785 B(  2-C , 39-H ) :   0.9484 
B(  2-C , 40-H ) :   0.9505 B(  3-N ,  4-H ) :   0.9348 B(  3-N ,  5-C ) :   0.9812 
B(  3-N , 37-H ) :   0.1581 B(  5-C ,  6-H ) :   0.9334 B(  5-C ,  7-C ) :   1.0624 
B(  5-C , 38-H ) :   0.9489 B(  7-C ,  8-C ) :   1.0570 B(  7-C , 12-H ) :   0.8986 
B(  7-C , 13-C ) :   0.9970 B(  8-C ,  9-H ) :   0.9632 B(  8-C , 10-H ) :   0.9631 
B(  8-C , 11-H ) :   0.9694 B( 13-C , 14-C ) :   0.9108 B( 13-C , 25-C ) :   0.9261 
B( 13-C , 36-O ) :   1.1102 B( 14-C , 15-C ) :   1.4458 B( 14-C , 19-C ) :   1.3746 
B( 15-C , 16-C ) :   1.3672 B( 15-C , 24-H ) :   0.9801 B( 16-C , 17-C ) :   1.3972 
B( 16-C , 23-H ) :   0.9896 B( 17-C , 18-C ) :   1.3878 B( 17-C , 22-H ) :   0.9890 
B( 18-C , 19-C ) :   1.4149 B( 18-C , 21-H ) :   0.9867 B( 19-C , 20-H ) :   0.9883 
B( 25-C , 26-C ) :   1.3786 B( 25-C , 30-C ) :   1.4496 B( 26-C , 27-C ) :   1.4183 
B( 26-C , 35-H ) :   0.9886 B( 27-C , 28-C ) :   1.3907 B( 27-C , 34-H ) :   0.9860 
B( 28-C , 29-C ) :   1.3979 B( 28-C , 33-H ) :   0.9898 B( 29-C , 30-C ) :   1.3665 
B( 29-C , 32-H ) :   0.9897 B( 30-C , 31-H ) :   0.9831 B( 36-O , 37-H ) :   0.8851 


-------
TIMINGS
-------

Total SCF time: 0 days 0 hours 6 min 37 sec 

Total time                  ....     397.716 sec
Sum of individual times     ....     397.361 sec  ( 99.9%)

Fock matrix formation       ....     391.230 sec  ( 98.4%)
  XC integration            ....       9.792 sec  (  2.5% of F)
    Basis function eval.    ....       2.957 sec  ( 30.2% of XC)
    Density eval.           ....       2.248 sec  ( 23.0% of XC)
    XC-Functional eval.     ....       1.743 sec  ( 17.8% of XC)
    XC-Potential eval.      ....       2.599 sec  ( 26.5% of XC)
Diagonalization             ....       0.030 sec  (  0.0%)
Density matrix formation    ....       0.025 sec  (  0.0%)
Population analysis         ....       0.025 sec  (  0.0%)
Initial guess               ....       0.030 sec  (  0.0%)
Orbital Transformation      ....       0.000 sec  (  0.0%)
Orbital Orthonormalization  ....       0.023 sec  (  0.0%)
DIIS solution               ....       0.009 sec  (  0.0%)
SOSCF solution              ....       0.100 sec  (  0.0%)
Grid generation             ....       5.911 sec  (  1.5%)


-------------------------------------------------------------------------------
                          DFT DISPERSION CORRECTION                            
                                                                               
                              DFTD3 V3.1  Rev 1                                
                              USING zero damping                               
-------------------------------------------------------------------------------
The omegaB97X-D3 functional is recognized. Fit by Chai et al.
Active option DFTDOPT                   ...         3   

molecular C6(AA) [au] = 19880.035228 


            DFT-D V3
 parameters
 s6 scaling factor         :     1.0000 
 rs6 scaling factor        :     1.2810 
 s8 scaling factor         :     1.0000 
 rs8 scaling factor        :     1.0940 
 Damping factor alpha6     :    14.0000 
 Damping factor alpha8     :    16.0000 
 ad hoc parameters k1-k3   :    16.0000     1.3333    -4.0000 

 Edisp/kcal,au: -15.825571239710  -0.025219650389 
 E6   /kcal   :  -7.821103630 
 E8   /kcal   :  -8.004467610 
 % E8         :  50.579328158 

-------------------------   ----------------
Dispersion correction           -0.025219650
-------------------------   ----------------


-------------------------   --------------------
FINAL SINGLE POINT ENERGY      -868.217680203394
-------------------------   --------------------

                                *** OPTIMIZATION RUN DONE ***

                            ***************************************
                            *     ORCA property calculations      *
                            ***************************************

                                    ---------------------
                                    Active property flags
                                    ---------------------
   (+) Dipole Moment


------------------------------------------------------------------------------
                       ORCA ELECTRIC PROPERTIES CALCULATION
------------------------------------------------------------------------------

Dipole Moment Calculation                       ... on
Quadrupole Moment Calculation                   ... off
Polarizability Calculation                      ... off
GBWName                                         ... 000202910.gbw
Electron density file                           ... 000202910.scfp
The origin for moment calculation is the CENTER OF MASS  = ( 0.023768,  0.014039 -0.007773)

-------------
DIPOLE MOMENT
-------------
                                X             Y             Z
Electronic contribution:    -16.36873      -6.61013      -1.68260
Nuclear contribution   :     17.32966       6.78160       2.47924
                        -----------------------------------------
Total Dipole Moment    :      0.96093       0.17147       0.79664
                        -----------------------------------------
Magnitude (a.u.)       :      1.25993
Magnitude (Debye)      :      3.20249



--------------------
Rotational spectrum 
--------------------
 
Rotational constants in cm-1:     0.014193     0.007732     0.006405 
Rotational constants in MHz :   425.510256   231.796638   192.030008 

 Dipole components along the rotational axes: 
x,y,z [a.u.] :    -0.960021     0.224449     0.784482 
x,y,z [Debye]:    -2.440178     0.570503     1.993995 

 

Timings for individual modules:

Sum of individual times         ...    17000.335 sec (= 283.339 min)
GTO integral calculation        ...        7.438 sec (=   0.124 min)   0.0 %
SCF iterations                  ...    11009.320 sec (= 183.489 min)  64.8 %
SCF Gradient evaluation         ...     5977.920 sec (=  99.632 min)  35.2 %
Geometry relaxation             ...        5.657 sec (=   0.094 min)   0.0 %
                             ****ORCA TERMINATED NORMALLY****
TOTAL RUN TIME: 0 days 4 hours 43 minutes 26 seconds 344 msec
