
                                 *****************
                                 * O   R   C   A *
                                 *****************

           --- An Ab Initio, DFT and Semiempirical electronic structure package ---

                  #######################################################
                  #                        -***-                        #
                  #          Department of theory and spectroscopy      #
                  #               Directorship: Frank Neese             #
                  #        Max Planck Institute fuer Kohlenforschung    #
                  #                Kaiser Wilhelm Platz 1               #
                  #                 D-45470 Muelheim/Ruhr               #
                  #                      Germany                        #
                  #                                                     #
                  #                  All rights reserved                #
                  #                        -***-                        #
                  #######################################################


                         Program Version 4.2.0 -  RELEASE  -


 With contributions from (in alphabetic order):
   Daniel Aravena         : Magnetic Suceptibility
   Michael Atanasov       : Ab Initio Ligand Field Theory (pilot matlab implementation)
   Alexander A. Auer      : GIAO ZORA, VPT2
   Ute Becker             : Parallelization
   Giovanni Bistoni       : ED, misc. LED, open-shell LED, HFLED
   Martin Brehm           : Molecular dynamics
   Dmytro Bykov           : SCF Hessian
   Vijay G. Chilkuri      : MRCI spin determinant printing, contributions to CSF-ICE
   Dipayan Datta          : RHF DLPNO-CCSD density
   Achintya Kumar Dutta   : EOM-CC, STEOM-CC
   Dmitry Ganyushin       : Spin-Orbit,Spin-Spin,Magnetic field MRCI
   Miquel Garcia          : C-PCM Hessian, Gaussian charge scheme
   Yang Guo               : DLPNO-NEVPT2, CIM, IAO-localization
   Andreas Hansen         : Spin unrestricted coupled pair/coupled cluster methods
   Benjamin Helmich-Paris : CASSCF linear response (MC-RPA)
   Lee Huntington         : MR-EOM, pCC
   Robert Izsak           : Overlap fitted RIJCOSX, COSX-SCS-MP3, EOM
   Christian Kollmar      : KDIIS, OOCD, Brueckner-CCSD(T), CCSD density
   Simone Kossmann        : Meta GGA functionals, TD-DFT gradient, OOMP2, MP2 Hessian
   Martin Krupicka        : AUTO-CI
   Lucas Lang             : DCDCAS
   Dagmar Lenk            : GEPOL surface, SMD
   Dimitrios Liakos       : Extrapolation schemes; Compound Job, initial MDCI parallelization
   Dimitrios Manganas     : Further ROCIS development; embedding schemes
   Dimitrios Pantazis     : SARC Basis sets
   Taras Petrenko         : DFT Hessian,TD-DFT gradient, ASA, ECA, R-Raman, ABS, FL, XAS/XES, NRVS
   Peter Pinski           : DLPNO-MP2, DLPNO-MP2 Gradient
   Christoph Reimann      : Effective Core Potentials
   Marius Retegan         : Local ZFS, SOC
   Christoph Riplinger    : Optimizer, TS searches, QM/MM, DLPNO-CCSD(T), (RO)-DLPNO pert. Triples
   Tobias Risthaus        : Range-separated hybrids, TD-DFT gradient, RPA, STAB
   Michael Roemelt        : Original ROCIS implementation
   Masaaki Saitow         : Open-shell DLPNO-CCSD energy and density
   Barbara Sandhoefer     : DKH picture change effects
   Avijit Sen             : IP-ROCIS
   Kantharuban Sivalingam : CASSCF convergence, NEVPT2, FIC-MRCI
   Bernardo de Souza      : ESD, SOC TD-DFT
   Georgi Stoychev        : AutoAux, RI-MP2 NMR
   Willem Van den Heuvel  : Paramagnetic NMR
   Boris Wezisla          : Elementary symmetry handling
   Frank Wennmohs         : Technical directorship


 We gratefully acknowledge several colleagues who have allowed us to
 interface, adapt or use parts of their codes:
   Stefan Grimme, W. Hujo, H. Kruse,             : VdW corrections, initial TS optimization,
                  C. Bannwarth                     DFT functionals, gCP, sTDA/sTD-DF
   Ed Valeev, F. Pavosevic, A. Kumar             : LibInt (2-el integral package), F12 methods
   Garnet Chan, S. Sharma, J. Yang, R. Olivares  : DMRG
   Ulf Ekstrom                                   : XCFun DFT Library
   Mihaly Kallay                                 : mrcc  (arbitrary order and MRCC methods)
   Andreas Klamt, Michael Diedenhofen            : otool_cosmo (COSMO solvation model)
   Jiri Pittner, Ondrej Demel                    : Mk-CCSD
   Frank Weinhold                                : gennbo (NPA and NBO analysis)
   Christopher J. Cramer and Donald G. Truhlar   : smd solvation model
   Lars Goerigk                                  : TD-DFT with DH, B97 family of functionals
   V. Asgeirsson, H. Jonsson                     : NEB implementation
   FAccTs GmbH                                   : IRC, NEB, NEB-TS, Multilevel, MM, QM/MM, CI optimization
   S Lehtola, MJT Oliveira, MAL Marques          : LibXC Library


 Your calculation uses the libint2 library for the computation of 2-el integrals
 For citations please refer to: http://libint.valeyev.net

 Your ORCA version has been built with support for libXC version: 4.2.3
 For citations please refer to: https://tddft.org/programs/libxc/

 This ORCA versions uses:
   CBLAS   interface :  Fast vector & matrix operations
   LAPACKE interface :  Fast linear algebra routines
   SCALAPACK package :  Parallel linear algebra routines


Your calculation utilizes the atom-pairwise dispersion correction
with the zero-damping scheme (D30)
Cite in your paper:
S.Grimme, J.Antony, S.Ehrlich and H.Krieg, J.Chem.Phys., 132, (2010), 154104 
   

XCFun DFT library Copyright 2009-2010 Ulf Ekstrom and contributors.
See http://admol.org/xcfun for more information. This is free soft-
ware; see the source code for copying conditions. There is ABSOLUTELY
NO WARRANTY; not even for MERCHANTABILITY or FITNESS FOR A PARTICULAR
PURPOSE. For details see the documentation. Scientific users of this 
library should cite U. Ekstrom, L. Visscher, R. Bast, A. J. Thorvald-
sen and K. Ruud; J.Chem.Theor.Comp. 2010, DOI: 10.1021/ct100117s
XCFun Version 0.99 
----- Orbital basis set information -----
Your calculation utilizes the basis: def2-SVP
   F. Weigend and R. Ahlrichs, Phys. Chem. Chem. Phys. 7, 3297 (2005).

================================================================================
                                        WARNINGS
                       Please study these warnings very carefully!
================================================================================


WARNING: Geometry Optimization
  ===> : Switching off AutoStart
         For restart on a previous wavefunction, please use MOREAD

INFO   : the flag for use of LIBINT has been found!

================================================================================
                                       INPUT FILE
================================================================================
NAME = 022277907.inp
|  1> # ORCA input file
|  2> # -49.75279326
|  3> ! wB97X-D3 def2-SVP Opt
|  4> * xyz 0 1
|  5>    C       -2.83200        -1.35120        -1.31410
|  6>    H       -2.56340        -1.91160        -2.20770
|  7>    H       -3.90530        -1.44630        -1.16240
|  8>    H       -2.60270        -0.30170        -1.47990
|  9>    C       -2.07350        -1.88620        -0.10070
| 10>    C       -2.43400        -3.35420         0.12690
| 11>    H       -2.12130        -3.95810        -0.72280
| 12>    H       -1.94740        -3.73840         1.02110
| 13>    H       -3.50910        -3.46860         0.24820
| 14>    H       -2.40370        -1.31700         0.77300
| 15>    C       -0.55050        -1.72480        -0.27520
| 16>    H       -0.06330        -2.65240         0.03020
| 17>    H       -0.33390        -1.56520        -1.33270
| 18>    C        0.07210        -0.57190         0.54380
| 19>    C        1.52710        -0.31850         0.16720
| 20>    C        2.31160        -1.23050        -0.52520
| 21>    C        3.64160        -0.95700        -0.80110
| 22>    C        4.21450         0.23020        -0.38500
| 23>    C        3.44550         1.14460         0.31490
| 24>    C        2.11940         0.87000         0.58780
| 25>    H        1.52770         1.59410         1.12980
| 26>    H        3.88060         2.07530         0.64930
| 27>    H        5.25110         0.44160        -0.60220
| 28>    H        4.23170        -1.68060        -1.34520
| 29>    H        1.89880        -2.16860        -0.86130
| 30>    C       -0.71560         0.69530         0.26310
| 31>    C       -0.56590         1.30470        -0.98080
| 32>    C       -1.27420         2.44510        -1.30720
| 33>    C       -2.15450         3.00110        -0.39360
| 34>    C       -2.31170         2.40660         0.84440
| 35>    C       -1.59790         1.26460         1.17060
| 36>    H       -1.73830         0.82830         2.14730
| 37>    H       -2.99420         2.83270         1.56580
| 38>    H       -2.71120         3.89160        -0.64580
| 39>    H       -1.14080         2.90100        -2.27770
| 40>    H        0.12210         0.88070        -1.69860
| 41>    C        0.08590        -0.96350         2.02940
| 42>    H       -0.89720        -1.27820         2.36990
| 43>    H        0.77450        -1.79450         2.17290
| 44>    H        0.42630        -0.13390         2.64470
| 45> *
| 46> 
| 47>                          ****END OF INPUT****
================================================================================

                       *****************************
                       * Geometry Optimization Run *
                       *****************************

Geometry optimization settings:
Update method            Update   .... BFGS
Choice of coordinates    CoordSys .... Z-matrix Internals
Initial Hessian          InHess   .... Almoef's Model

Convergence Tolerances:
Energy Change            TolE     ....  5.0000e-06 Eh
Max. Gradient            TolMAXG  ....  3.0000e-04 Eh/bohr
RMS Gradient             TolRMSG  ....  1.0000e-04 Eh/bohr
Max. Displacement        TolMAXD  ....  4.0000e-03 bohr
RMS Displacement         TolRMSD  ....  2.0000e-03 bohr
Strict Convergence                ....  False
------------------------------------------------------------------------------
                        ORCA OPTIMIZATION COORDINATE SETUP
------------------------------------------------------------------------------

The optimization will be done in new redundant internal coordinates
Making redundant internal coordinates   ...  (new redundants) done
Evaluating the initial hessian          ...  (Almloef) done
Evaluating the coordinates              ...  done
Calculating the B-matrix                .... done
Calculating the G-matrix                .... done
Diagonalizing the G-matrix              .... done
Small eigenvalue found = 6.164e-03
Small eigenvalue found = 8.315e-03
Small eigenvalue found = 1.461e-02
Small eigenvalue found = 1.998e-02
Small eigenvalue found = 2.743e-02
The first mode is                       ....  104
The number of degrees of freedom        ....  114

    -----------------------------------------------------------------
                    Redundant Internal Coordinates


    -----------------------------------------------------------------
         Definition                    Initial Value    Approx d2E/dq
    -----------------------------------------------------------------
      1. B(H   1,C   0)                  1.0884         0.362161   
      2. B(H   2,C   0)                  1.0881         0.362581   
      3. B(H   3,C   0)                  1.0870         0.364122   
      4. B(C   4,C   0)                  1.5277         0.376736   
      5. B(C   5,C   4)                  1.5287         0.375425   
      6. B(H   6,C   5)                  1.0883         0.362313   
      7. B(H   7,C   5)                  1.0881         0.362609   
      8. B(H   8,C   5)                  1.0880         0.362819   
      9. B(H   9,C   4)                  1.0938         0.355124   
     10. B(C  10,C   4)                  1.5414         0.358204   
     11. B(H  11,C  10)                  1.0914         0.358300   
     12. B(H  12,C  10)                  1.0912         0.358530   
     13. B(C  13,C  10)                  1.5452         0.353317   
     14. B(C  14,C  13)                  1.5242         0.381676   
     15. B(C  15,C  14)                  1.3880         0.629356   
     16. B(C  16,C  15)                  1.3856         0.635032   
     17. B(C  17,C  16)                  1.3823         0.642685   
     18. B(C  18,C  17)                  1.3847         0.637119   
     19. B(C  19,C  18)                  1.3815         0.644718   
     20. B(C  19,C  14)                  1.3929         0.618106   
     21. B(H  20,C  19)                  1.0808         0.372437   
     22. B(H  21,C  18)                  1.0804         0.372979   
     23. B(H  22,C  17)                  1.0800         0.373571   
     24. B(H  23,C  16)                  1.0807         0.372649   
     25. B(H  24,C  15)                  1.0786         0.375488   
     26. B(C  25,C  13)                  1.5182         0.390064   
     27. B(C  26,C  25)                  1.3932         0.617446   
     28. B(C  27,C  26)                  1.3816         0.644446   
     29. B(C  28,C  27)                  1.3852         0.635954   
     30. B(C  29,C  28)                  1.3823         0.642694   
     31. B(C  30,C  25)                  1.3878         0.629764   
     32. B(C  30,C  29)                  1.3857         0.634815   
     33. B(H  31,C  30)                  1.0789         0.375095   
     34. B(H  32,C  29)                  1.0806         0.372696   
     35. B(H  33,C  28)                  1.0801         0.373505   
     36. B(H  34,C  27)                  1.0805         0.372870   
     37. B(H  35,C  26)                  1.0809         0.372334   
     38. B(C  36,C  13)                  1.5364         0.364884   
     39. B(H  37,C  36)                  1.0870         0.364156   
     40. B(H  38,C  36)                  1.0887         0.361790   
     41. B(H  39,C  36)                  1.0875         0.363394   
     42. A(H   1,C   0,H   2)          108.2322         0.291415   
     43. A(H   2,C   0,C   4)          110.3890         0.325135   
     44. A(H   1,C   0,C   4)          110.4416         0.325073   
     45. A(H   1,C   0,H   3)          108.6524         0.291609   
     46. A(H   3,C   0,C   4)          110.7652         0.325361   
     47. A(H   2,C   0,H   3)          108.2839         0.291662   
     48. A(C   0,C   4,C  10)          111.3444         0.361274   
     49. A(C   5,C   4,C  10)          110.5127         0.361059   
     50. A(H   9,C   4,C  10)          109.5247         0.321359   
     51. A(C   0,C   4,C   5)          109.7229         0.364183   
     52. A(C   0,C   4,H   9)          107.5969         0.324027   
     53. A(C   5,C   4,H   9)          108.0364         0.323841   
     54. A(H   6,C   5,H   7)          108.4930         0.291437   
     55. A(H   6,C   5,H   8)          108.2176         0.291464   
     56. A(C   4,C   5,H   6)          110.4181         0.324909   
     57. A(C   4,C   5,H   7)          110.8531         0.324953   
     58. A(H   7,C   5,H   8)          108.2499         0.291501   
     59. A(C   4,C   5,H   8)          110.5254         0.324983   
     60. A(H  11,C  10,C  13)          107.8167         0.321105   
     61. A(H  11,C  10,H  12)          107.8723         0.290411   
     62. A(C   4,C  10,H  12)          108.7325         0.321861   
     63. A(C   4,C  10,H  11)          108.6871         0.321827   
     64. A(C   4,C  10,C  13)          114.5970         0.357347   
     65. A(H  12,C  10,C  13)          108.9389         0.321138   
     66. A(C  10,C  13,C  14)          112.1932         0.361230   
     67. A(C  14,C  13,C  36)          105.8260         0.363222   
     68. A(C  14,C  13,C  25)          108.1095         0.367395   
     69. A(C  10,C  13,C  25)          108.4037         0.362573   
     70. A(C  25,C  13,C  36)          113.3388         0.364575   
     71. A(C  10,C  13,C  36)          109.0234         0.358472   
     72. A(C  13,C  14,C  19)          118.2403         0.397967   
     73. A(C  13,C  14,C  15)          123.6120         0.399231   
     74. A(C  15,C  14,C  19)          118.0937         0.434998   
     75. A(C  14,C  15,C  16)          120.8076         0.437120   
     76. A(C  14,C  15,H  24)          120.7031         0.356325   
     77. A(C  16,C  15,H  24)          118.4892         0.356869   
     78. A(C  15,C  16,C  17)          120.4918         0.438775   
     79. A(C  17,C  16,H  23)          120.0209         0.357135   
     80. A(C  15,C  16,H  23)          119.4873         0.356409   
     81. A(C  16,C  17,C  18)          119.2839         0.439035   
     82. A(C  18,C  17,H  22)          120.3603         0.356757   
     83. A(C  16,C  17,H  22)          120.3557         0.357285   
     84. A(C  19,C  18,H  21)          119.7792         0.357381   
     85. A(C  17,C  18,H  21)          120.1087         0.356661   
     86. A(C  17,C  18,C  19)          120.1121         0.439286   
     87. A(C  18,C  19,H  20)          119.4330         0.357292   
     88. A(C  14,C  19,H  20)          119.3576         0.354745   
     89. A(C  14,C  19,C  18)          121.2071         0.436892   
     90. A(C  26,C  25,C  30)          118.2093         0.434965   
     91. A(C  13,C  25,C  30)          123.4574         0.400807   
     92. A(C  13,C  25,C  26)          118.3204         0.399417   
     93. A(C  25,C  26,H  35)          119.3217         0.354664   
     94. A(C  27,C  26,H  35)          119.5525         0.357250   
     95. A(C  25,C  26,C  27)          121.1242         0.436775   
     96. A(C  28,C  27,H  34)          120.0993         0.356533   
     97. A(C  26,C  27,H  34)          119.8135         0.357337   
     98. A(C  26,C  27,C  28)          120.0870         0.439107   
     99. A(C  29,C  28,H  33)          120.3387         0.357275   
    100. A(C  27,C  28,H  33)          120.2984         0.356636   
    101. A(C  27,C  28,C  29)          119.3629         0.438891   
    102. A(C  30,C  29,H  32)          119.5481         0.356396   
    103. A(C  28,C  29,H  32)          120.0077         0.357144   
    104. A(C  28,C  29,C  30)          120.4442         0.438750   
    105. A(C  29,C  30,H  31)          118.6435         0.356785   
    106. A(C  25,C  30,H  31)          120.5839         0.356301   
    107. A(C  25,C  30,C  29)          120.7720         0.437144   
    108. A(H  38,C  36,H  39)          108.0419         0.291470   
    109. A(H  37,C  36,H  39)          109.0700         0.291769   
    110. A(C  13,C  36,H  39)          110.8211         0.323551   
    111. A(H  37,C  36,H  38)          108.0457         0.291566   
    112. A(C  13,C  36,H  38)          109.1275         0.323317   
    113. A(C  13,C  36,H  37)          111.6276         0.323663   
    114. D(H   9,C   4,C   0,H   2)    -58.3396         0.011322   
    115. D(H   9,C   4,C   0,H   3)     61.5860         0.011322   
    116. D(C   5,C   4,C   0,H   1)    -60.6851         0.011322   
    117. D(C   5,C   4,C   0,H   2)     58.9679         0.011322   
    118. D(C  10,C   4,C   0,H   3)    -58.4391         0.011322   
    119. D(C  10,C   4,C   0,H   2)   -178.3647         0.011322   
    120. D(H   9,C   4,C   0,H   1)   -177.9926         0.011322   
    121. D(C   5,C   4,C   0,H   3)    178.8935         0.011322   
    122. D(C  10,C   4,C   0,H   1)     61.9824         0.011322   
    123. D(H   7,C   5,C   4,H   9)    -59.7305         0.011248   
    124. D(H   6,C   5,C   4,C  10)    -60.1852         0.011248   
    125. D(H   7,C   5,C   4,C   0)   -176.7627         0.011248   
    126. D(H   8,C   5,C   4,C   0)    -56.7334         0.011248   
    127. D(H   7,C   5,C   4,C  10)     60.0784         0.011248   
    128. D(H   8,C   5,C   4,C  10)   -179.8922         0.011248   
    129. D(H   6,C   5,C   4,H   9)   -179.9941         0.011248   
    130. D(H   8,C   5,C   4,H   9)     60.2989         0.011248   
    131. D(H   6,C   5,C   4,C   0)     62.9736         0.011248   
    132. D(C  13,C  10,C   4,C   0)    104.2351         0.010301   
    133. D(C  13,C  10,C   4,C   5)   -133.5527         0.010301   
    134. D(H  12,C  10,C   4,H   9)   -136.7946         0.010301   
    135. D(H  12,C  10,C   4,C   0)    -17.9160         0.010301   
    136. D(H  12,C  10,C   4,C   5)    104.2962         0.010301   
    137. D(H  11,C  10,C   4,H   9)    106.0248         0.010301   
    138. D(H  11,C  10,C   4,C   0)   -135.0966         0.010301   
    139. D(C  13,C  10,C   4,H   9)    -14.6435         0.010301   
    140. D(H  11,C  10,C   4,C   5)    -12.8843         0.010301   
    141. D(C  25,C  13,C  10,C   4)    -51.6165         0.010043   
    142. D(C  14,C  13,C  10,H  12)    -48.8878         0.010043   
    143. D(C  14,C  13,C  10,H  11)     67.9255         0.010043   
    144. D(C  14,C  13,C  10,C   4)   -170.9266         0.010043   
    145. D(C  36,C  13,C  10,H  12)   -165.7733         0.010043   
    146. D(C  36,C  13,C  10,H  11)    -48.9600         0.010043   
    147. D(C  36,C  13,C  10,C   4)     72.1878         0.010043   
    148. D(C  25,C  13,C  10,H  12)     70.4223         0.010043   
    149. D(C  25,C  13,C  10,H  11)   -172.7644         0.010043   
    150. D(C  19,C  14,C  13,C  36)    -75.8391         0.010865   
    151. D(C  19,C  14,C  13,C  25)     45.8922         0.010865   
    152. D(C  19,C  14,C  13,C  10)    165.3746         0.010865   
    153. D(C  15,C  14,C  13,C  36)    101.4336         0.010865   
    154. D(C  15,C  14,C  13,C  25)   -136.8350         0.010865   
    155. D(C  15,C  14,C  13,C  10)    -17.3527         0.010865   
    156. D(H  24,C  15,C  14,C  19)    179.3488         0.027459   
    157. D(H  24,C  15,C  14,C  13)      2.0723         0.027459   
    158. D(C  16,C  15,C  14,C  19)     -0.6881         0.027459   
    159. D(C  16,C  15,C  14,C  13)   -177.9646         0.027459   
    160. D(H  23,C  16,C  15,H  24)      0.2126         0.027989   
    161. D(H  23,C  16,C  15,C  14)   -179.7513         0.027989   
    162. D(C  17,C  16,C  15,H  24)   -179.7358         0.027989   
    163. D(C  17,C  16,C  15,C  14)      0.3004         0.027989   
    164. D(H  22,C  17,C  16,H  23)      0.1198         0.028714   
    165. D(H  22,C  17,C  16,C  15)   -179.9321         0.028714   
    166. D(C  18,C  17,C  16,H  23)   -179.7904         0.028714   
    167. D(C  18,C  17,C  16,C  15)      0.1577         0.028714   
    168. D(H  21,C  18,C  17,H  22)     -0.1109         0.028186   
    169. D(H  21,C  18,C  17,C  16)    179.7993         0.028186   
    170. D(C  19,C  18,C  17,H  22)    179.8817         0.028186   
    171. D(C  19,C  18,C  17,C  16)     -0.2081         0.028186   
    172. D(C  14,C  19,C  18,C  17)     -0.1975         0.028908   
    173. D(H  20,C  19,C  14,C  15)   -179.9184         0.026427   
    174. D(H  20,C  19,C  14,C  13)     -2.4929         0.026427   
    175. D(C  18,C  19,C  14,C  15)      0.6394         0.026427   
    176. D(C  18,C  19,C  14,C  13)    178.0648         0.026427   
    177. D(H  20,C  19,C  18,H  21)      0.3532         0.028908   
    178. D(H  20,C  19,C  18,C  17)   -179.6394         0.028908   
    179. D(C  14,C  19,C  18,H  21)    179.7951         0.028908   
    180. D(C  30,C  25,C  13,C  36)    -14.8587         0.011319   
    181. D(C  30,C  25,C  13,C  14)   -131.8339         0.011319   
    182. D(C  30,C  25,C  13,C  10)    106.3193         0.011319   
    183. D(C  26,C  25,C  13,C  36)    166.4784         0.011319   
    184. D(C  26,C  25,C  13,C  14)     49.5032         0.011319   
    185. D(C  26,C  25,C  13,C  10)    -72.3437         0.011319   
    186. D(H  35,C  26,C  25,C  30)    179.5418         0.026368   
    187. D(H  35,C  26,C  25,C  13)     -1.7241         0.026368   
    188. D(C  27,C  26,C  25,C  30)      0.0013         0.026368   
    189. D(C  27,C  26,C  25,C  13)    178.7354         0.026368   
    190. D(H  34,C  27,C  26,H  35)      0.3841         0.028882   
    191. D(H  34,C  27,C  26,C  25)    179.9235         0.028882   
    192. D(C  28,C  27,C  26,H  35)   -179.7222         0.028882   
    193. D(C  28,C  27,C  26,C  25)     -0.1827         0.028882   
    194. D(H  33,C  28,C  27,H  34)     -0.0032         0.028076   
    195. D(H  33,C  28,C  27,C  26)   -179.8966         0.028076   
    196. D(C  29,C  28,C  27,H  34)   -179.8927         0.028076   
    197. D(C  29,C  28,C  27,C  26)      0.2139         0.028076   
    198. D(H  32,C  29,C  28,H  33)     -0.0101         0.028715   
    199. D(H  32,C  29,C  28,C  27)    179.8793         0.028715   
    200. D(C  30,C  29,C  28,H  33)   -179.9559         0.028715   
    201. D(C  30,C  29,C  28,C  27)     -0.0664         0.028715   
    202. D(H  31,C  30,C  29,H  32)     -0.3349         0.027969   
    203. D(H  31,C  30,C  29,C  28)    179.6111         0.027969   
    204. D(C  25,C  30,C  29,H  32)    179.9376         0.027969   
    205. D(C  25,C  30,C  29,C  28)     -0.1164         0.027969   
    206. D(H  31,C  30,C  25,C  26)   -179.5746         0.027497   
    207. D(H  31,C  30,C  25,C  13)      1.7611         0.027497   
    208. D(C  29,C  30,C  25,C  26)      0.1477         0.027497   
    209. D(C  29,C  30,C  25,C  13)   -178.5167         0.027497   
    210. D(H  39,C  36,C  13,C  25)    -53.4973         0.010662   
    211. D(H  39,C  36,C  13,C  14)     64.8084         0.010662   
    212. D(H  39,C  36,C  13,C  10)   -174.3259         0.010662   
    213. D(H  38,C  36,C  13,C  25)   -172.3529         0.010662   
    214. D(H  38,C  36,C  13,C  14)    -54.0472         0.010662   
    215. D(H  38,C  36,C  13,C  10)     66.8185         0.010662   
    216. D(H  37,C  36,C  13,C  25)     68.2922         0.010662   
    217. D(H  37,C  36,C  13,C  14)   -173.4020         0.010662   
    218. D(H  37,C  36,C  13,C  10)    -52.5363         0.010662   
    -----------------------------------------------------------------

Number of atoms                         .... 40
Number of degrees of freedom            .... 218

         *************************************************************
         *                GEOMETRY OPTIMIZATION CYCLE   1            *
         *************************************************************
---------------------------------
CARTESIAN COORDINATES (ANGSTROEM)
---------------------------------
  C     -2.832000   -1.351200   -1.314100
  H     -2.563400   -1.911600   -2.207700
  H     -3.905300   -1.446300   -1.162400
  H     -2.602700   -0.301700   -1.479900
  C     -2.073500   -1.886200   -0.100700
  C     -2.434000   -3.354200    0.126900
  H     -2.121300   -3.958100   -0.722800
  H     -1.947400   -3.738400    1.021100
  H     -3.509100   -3.468600    0.248200
  H     -2.403700   -1.317000    0.773000
  C     -0.550500   -1.724800   -0.275200
  H     -0.063300   -2.652400    0.030200
  H     -0.333900   -1.565200   -1.332700
  C      0.072100   -0.571900    0.543800
  C      1.527100   -0.318500    0.167200
  C      2.311600   -1.230500   -0.525200
  C      3.641600   -0.957000   -0.801100
  C      4.214500    0.230200   -0.385000
  C      3.445500    1.144600    0.314900
  C      2.119400    0.870000    0.587800
  H      1.527700    1.594100    1.129800
  H      3.880600    2.075300    0.649300
  H      5.251100    0.441600   -0.602200
  H      4.231700   -1.680600   -1.345200
  H      1.898800   -2.168600   -0.861300
  C     -0.715600    0.695300    0.263100
  C     -0.565900    1.304700   -0.980800
  C     -1.274200    2.445100   -1.307200
  C     -2.154500    3.001100   -0.393600
  C     -2.311700    2.406600    0.844400
  C     -1.597900    1.264600    1.170600
  H     -1.738300    0.828300    2.147300
  H     -2.994200    2.832700    1.565800
  H     -2.711200    3.891600   -0.645800
  H     -1.140800    2.901000   -2.277700
  H      0.122100    0.880700   -1.698600
  C      0.085900   -0.963500    2.029400
  H     -0.897200   -1.278200    2.369900
  H      0.774500   -1.794500    2.172900
  H      0.426300   -0.133900    2.644700

----------------------------
CARTESIAN COORDINATES (A.U.)
----------------------------
  NO LB      ZA    FRAG     MASS         X           Y           Z
   0 C     6.0000    0    12.011   -5.351704   -2.553398   -2.483289
   1 H     1.0000    0     1.008   -4.844124   -3.612400   -4.171948
   2 H     1.0000    0     1.008   -7.379947   -2.733111   -2.196618
   3 H     1.0000    0     1.008   -4.918390   -0.570130   -2.796606
   4 C     6.0000    0    12.011   -3.918347   -3.564401   -0.190295
   5 C     6.0000    0    12.011   -4.599593   -6.338519    0.239806
   6 H     1.0000    0     1.008   -4.008676   -7.479725   -1.365894
   7 H     1.0000    0     1.008   -3.680053   -7.064552    1.929599
   8 H     1.0000    0     1.008   -6.631238   -6.554704    0.469030
   9 H     1.0000    0     1.008   -4.542335   -2.488769    1.460758
  10 C     6.0000    0    12.011   -1.040294   -3.259400   -0.520053
  11 H     1.0000    0     1.008   -0.119620   -5.012310    0.057070
  12 H     1.0000    0     1.008   -0.630980   -2.957799   -2.518438
  13 C     6.0000    0    12.011    0.136249   -1.080734    1.027633
  14 C     6.0000    0    12.011    2.885801   -0.601878    0.315962
  15 C     6.0000    0    12.011    4.368291   -2.325308   -0.992484
  16 C     6.0000    0    12.011    6.881627   -1.808468   -1.513860
  17 C     6.0000    0    12.011    7.964251    0.435015   -0.727545
  18 C     6.0000    0    12.011    6.511051    2.162981    0.595075
  19 C     6.0000    0    12.011    4.005086    1.644062    1.110781
  20 H     1.0000    0     1.008    2.886935    3.012412    2.135013
  21 H     1.0000    0     1.008    7.333271    3.921749    1.226999
  22 H     1.0000    0     1.008    9.923141    0.834503   -1.137993
  23 H     1.0000    0     1.008    7.996754   -3.175874   -2.542060
  24 H     1.0000    0     1.008    3.588212   -4.098060   -1.627621
  25 C     6.0000    0    12.011   -1.352288    1.313927    0.497187
  26 C     6.0000    0    12.011   -1.069396    2.465526   -1.853443
  27 C     6.0000    0    12.011   -2.407889    4.620569   -2.470250
  28 C     6.0000    0    12.011   -4.071415    5.671257   -0.743796
  29 C     6.0000    0    12.011   -4.368480    4.547815    1.595685
  30 C     6.0000    0    12.011   -3.019593    2.389748    2.212113
  31 H     1.0000    0     1.008   -3.284911    1.565260    4.057809
  32 H     1.0000    0     1.008   -5.658218    5.353027    2.958933
  33 H     1.0000    0     1.008   -5.123425    7.354058   -1.220385
  34 H     1.0000    0     1.008   -2.155800    5.482096   -4.304229
  35 H     1.0000    0     1.008    0.230736    1.664282   -3.209889
  36 C     6.0000    0    12.011    0.162327   -1.820751    3.835010
  37 H     1.0000    0     1.008   -1.695462   -2.415448    4.478462
  38 H     1.0000    0     1.008    1.463593   -3.391114    4.106186
  39 H     1.0000    0     1.008    0.805590   -0.253034    4.997759

--------------------------------
INTERNAL COORDINATES (ANGSTROEM)
--------------------------------
 C      0   0   0     0.000000000000     0.00000000     0.00000000
 H      1   0   0     1.088446176896     0.00000000     0.00000000
 H      1   2   0     1.088131329390   108.23221796     0.00000000
 H      1   2   3     1.086976715482   108.65239190   242.62497998
 C      1   2   3     1.527706388676   110.44163607   120.94632485
 C      5   1   2     1.528654967610   109.72293171   299.31493576
 H      6   5   1     1.088332021949   110.41805462    62.97364458
 H      6   5   1     1.088109755493   110.85310862   183.23726732
 H      6   5   1     1.087952691986   110.52535230   303.26660510
 H      5   1   2     1.093788082766   107.59686002   182.00743714
 C      5   1   2     1.541437384392   111.34442908    61.98236726
 H     11   5   1     1.091363715725   108.68710707   224.90343501
 H     11   5   1     1.091189245731   108.73251228   342.08396290
 C     11   5   1     1.545176420348   114.59703176   104.23506844
 C     14  11   5     1.524160135944   112.19319513   189.07335051
 C     15  14  11     1.388020896817   123.61197074   342.64732213
 C     16  15  14     1.385576796861   120.80764570   182.03537254
 C     17  16  15     1.382315976903   120.49178847     0.30036433
 C     18  17  16     1.384683490910   119.28392488     0.15769231
 C     19  18  17     1.381456036217   120.11211225   359.79188318
 H     20  19  18     1.080830097656   119.43301582   180.36060491
 H     19  18  17     1.080434107200   120.10871889   179.79928748
 H     18  17  16     1.080002481479   120.35574160   180.06785917
 H     17  16  15     1.080675612753   119.48728254   180.24873440
 H     16  15  14     1.078609595730   120.70314962     2.07233275
 C     14  11   5     1.518242279743   108.40365542   308.38345574
 C     26  14  11     1.393221324844   118.32036193   287.65633087
 C     27  26  14     1.381570848708   121.12417440   178.73542631
 C     28  27  26     1.385181955557   120.08703077   359.81725008
 C     29  28  27     1.382311864233   119.36285408     0.21390584
 C     30  29  28     1.385669830804   120.44419618   359.93359089
 H     31  30  29     1.078894220950   118.64350839   179.61112965
 H     30  29  28     1.080641207802   120.00771421   179.87934980
 H     29  28  27     1.080050915466   120.29840057   180.10342425
 H     28  27  26     1.080514053587   119.81354733   179.92352520
 H     27  26  14     1.080905564793   119.32174977   358.27593094
 C     14  11   5     1.536407615186   109.02340981    72.18784957
 H     37  14  11     1.086950757854   111.62763160   307.46366206
 H     37  14  11     1.088725498002   109.12754912    66.81850564
 H     37  14  11     1.087521222781   110.82113662   185.67412278

---------------------------
INTERNAL COORDINATES (A.U.)
---------------------------
 C      0   0   0     0.000000000000     0.00000000     0.00000000
 H      1   0   0     2.056865185847     0.00000000     0.00000000
 H      1   2   0     2.056270210287   108.23221796     0.00000000
 H      1   2   3     2.054088306210   108.65239190   242.62497998
 C      1   2   3     2.886946687639   110.44163607   120.94632485
 C      5   1   2     2.888739242042   109.72293171   299.31493576
 H      6   5   1     2.056649464261   110.41805462    62.97364458
 H      6   5   1     2.056229441531   110.85310862   183.23726732
 H      6   5   1     2.055932634516   110.52535230   303.26660510
 H      5   1   2     2.066959924974   107.59686002   182.00743714
 C      5   1   2     2.912894509088   111.34442908    61.98236726
 H     11   5   1     2.062378535218   108.68710707   224.90343501
 H     11   5   1     2.062048834713   108.73251228   342.08396290
 C     11   5   1     2.919960263051   114.59703176   104.23506844
 C     14  11   5     2.880245241174   112.19319513   189.07335051
 C     15  14  11     2.622979363143   123.61197074   342.64732213
 C     16  15  14     2.618360683583   120.80764570   182.03537254
 C     17  16  15     2.612198626890   120.49178847     0.30036433
 C     18  17  16     2.616672579983   119.28392488     0.15769231
 C     19  18  17     2.610573574502   120.11211225   359.79188318
 H     20  19  18     2.042472881870   119.43301582   180.36060491
 H     19  18  17     2.041724568355   120.10871889   179.79928748
 H     18  17  16     2.040908913950   120.35574160   180.06785917
 H     17  16  15     2.042180947712   119.48728254   180.24873440
 H     16  15  14     2.038276741348   120.70314962     2.07233275
 C     14  11   5     2.869062113655   108.40365542   308.38345574
 C     26  14  11     2.632806747894   118.32036193   287.65633087
 C     27  26  14     2.610790538667   121.12417440   178.73542631
 C     28  27  26     2.617614541652   120.08703077   359.81725008
 C     29  28  27     2.612190855071   119.36285408     0.21390584
 C     30  29  28     2.618536492256   120.44419618   359.93359089
 H     31  30  29     2.038814605066   118.64350839   179.61112965
 H     30  29  28     2.042115931776   120.00771421   179.87934980
 H     29  28  27     2.041000440923   120.29840057   180.10342425
 H     28  27  26     2.041875645133   119.81354733   179.92352520
 H     27  26  14     2.042615494090   119.32174977   358.27593094
 C     14  11   5     2.903389622772   109.02340981    72.18784957
 H     37  14  11     2.054039253403   111.62763160   307.46366206
 H     37  14  11     2.057393026241   109.12754912    66.81850564
 H     37  14  11     2.055117275884   110.82113662   185.67412278

---------------------
BASIS SET INFORMATION
---------------------
There are 2 groups of distinct atoms

 Group   1 Type C   : 7s4p1d contracted to 3s2p1d pattern {511/31/1}
 Group   2 Type H   : 4s1p contracted to 2s1p pattern {31/1}

Atom   0C    basis set group =>   1
Atom   1H    basis set group =>   2
Atom   2H    basis set group =>   2
Atom   3H    basis set group =>   2
Atom   4C    basis set group =>   1
Atom   5C    basis set group =>   1
Atom   6H    basis set group =>   2
Atom   7H    basis set group =>   2
Atom   8H    basis set group =>   2
Atom   9H    basis set group =>   2
Atom  10C    basis set group =>   1
Atom  11H    basis set group =>   2
Atom  12H    basis set group =>   2
Atom  13C    basis set group =>   1
Atom  14C    basis set group =>   1
Atom  15C    basis set group =>   1
Atom  16C    basis set group =>   1
Atom  17C    basis set group =>   1
Atom  18C    basis set group =>   1
Atom  19C    basis set group =>   1
Atom  20H    basis set group =>   2
Atom  21H    basis set group =>   2
Atom  22H    basis set group =>   2
Atom  23H    basis set group =>   2
Atom  24H    basis set group =>   2
Atom  25C    basis set group =>   1
Atom  26C    basis set group =>   1
Atom  27C    basis set group =>   1
Atom  28C    basis set group =>   1
Atom  29C    basis set group =>   1
Atom  30C    basis set group =>   1
Atom  31H    basis set group =>   2
Atom  32H    basis set group =>   2
Atom  33H    basis set group =>   2
Atom  34H    basis set group =>   2
Atom  35H    basis set group =>   2
Atom  36C    basis set group =>   1
Atom  37H    basis set group =>   2
Atom  38H    basis set group =>   2
Atom  39H    basis set group =>   2
------------------------------------------------------------------------------
                           ORCA GTO INTEGRAL CALCULATION
------------------------------------------------------------------------------

                         BASIS SET STATISTICS AND STARTUP INFO

 # of primitive gaussian shells          ...  326
 # of primitive gaussian functions       ...  586
 # of contracted shells                  ...  174
 # of contracted basis functions         ...  362
 Highest angular momentum                ...    2
 Maximum contraction depth               ...    5
 Integral package used                   ... LIBINT
 Integral threshhold            Thresh   ...  2.500e-11
 Primitive cut-off              TCut     ...  2.500e-12


------------------------------ INTEGRAL EVALUATION ----------------------------


 * One electron integrals 
 Pre-screening matrix                    ... done
 Shell pair data                         ... done (   0.004 sec)

-------------------------------------------------------------------------------
                                 ORCA SCF
-------------------------------------------------------------------------------

------------
SCF SETTINGS
------------
Hamiltonian:
 Density Functional     Method          .... DFT(GTOs)
 Exchange Functional    Exchange        .... WB97X-D3
 Correlation Functional Correlation     .... WB97X-D3
 Gradients option       PostSCFGGA      .... off
 Hybrid DFT is turned on
   Fraction HF Exchange ScalHFX         ....  0.195728
   Scaling of DF-GGA-X  ScalDFX         ....  0.000000
   Scaling of DF-GGA-C  ScalDFC         ....  1.000000
   Scaling of DF-LDA-C  ScalLDAC        ....  1.000000
   Perturbative correction              ....  0.000000
   Density functional embedding theory  .... OFF
 Long-range corrected/Screened/Range-Separated Hybrid DFT is turned on
   Amount of maximum screened exact exchange              ....  0.804272
   Range separation parameter mu (erf(mu*r12)/r12)        ....  0.250000


General Settings:
 Integral files         IntName         .... 022277907
 Hartree-Fock type      HFTyp           .... RHF
 Total Charge           Charge          ....    0
 Multiplicity           Mult            ....    1
 Number of Electrons    NEL             ....  130
 Basis Dimension        Dim             ....  362
 Nuclear Repulsion      ENuc            ....   1316.4112474439 Eh

Convergence Acceleration:
 DIIS                   CNVDIIS         .... on
   Start iteration      DIISMaxIt       ....    12
   Startup error        DIISStart       ....  0.200000
   # of expansion vecs  DIISMaxEq       ....     5
   Bias factor          DIISBfac        ....   1.050
   Max. coefficient     DIISMaxC        ....  10.000
 Newton-Raphson         CNVNR           .... off
 SOSCF                  CNVSOSCF        .... on
   Start iteration      SOSCFMaxIt      ....   150
   Startup grad/error   SOSCFStart      ....  0.003300
 Level Shifting         CNVShift        .... on
   Level shift para.    LevelShift      ....    0.2500
   Turn off err/grad.   ShiftErr        ....    0.0010
 Zerner damping         CNVZerner       .... off
 Static damping         CNVDamp         .... on
   Fraction old density DampFac         ....    0.7000
   Max. Damping (<1)    DampMax         ....    0.9800
   Min. Damping (>=0)   DampMin         ....    0.0000
   Turn off err/grad.   DampErr         ....    0.1000
 Fernandez-Rico         CNVRico         .... off

SCF Procedure:
 Maximum # iterations   MaxIter         ....   125
 SCF integral mode      SCFMode         .... Direct
   Integral package                     .... LIBINT
 Reset frequency        DirectResetFreq ....    20
 Integral Threshold     Thresh          ....  2.500e-11 Eh
 Primitive CutOff       TCut            ....  2.500e-12 Eh

Convergence Tolerance:
 Convergence Check Mode ConvCheckMode   .... Total+1el-Energy
 Convergence forced     ConvForced      .... 0
 Energy Change          TolE            ....  1.000e-08 Eh
 1-El. energy change                    ....  1.000e-05 Eh
 Orbital Gradient       TolG            ....  1.000e-05
 Orbital Rotation angle TolX            ....  1.000e-05
 DIIS Error             TolErr          ....  5.000e-07


Diagonalization of the overlap matrix:
Smallest eigenvalue                        ... 2.230e-04
Time for diagonalization                   ...    0.042 sec
Threshold for overlap eigenvalues          ... 1.000e-08
Number of eigenvalues below threshold      ... 0
Time for construction of square roots      ...    0.007 sec
Total time needed                          ...    0.050 sec

-------------------
DFT GRID GENERATION
-------------------

General Integration Accuracy     IntAcc      ...  4.340
Radial Grid Type                 RadialGrid  ... Gauss-Chebyshev
Angular Grid (max. acc.)         AngularGrid ... Lebedev-110
Angular grid pruning method      GridPruning ... 3 (G Style)
Weight generation scheme         WeightScheme... Becke
Basis function cutoff            BFCut       ...    1.0000e-11
Integration weight cutoff        WCut        ...    1.0000e-14
Grids for H and He will be reduced by one unit

# of grid points (after initial pruning)     ...  47276 (   0.0 sec)
# of grid points (after weights+screening)   ...  41536 (   0.4 sec)
nearest neighbour list constructed           ...    0.0 sec
Grid point re-assignment to atoms done       ...    0.0 sec
Grid point division into batches done        ...    0.0 sec
Reduced shell lists constructed in    0.5 sec

Total number of grid points                  ...    41536
Total number of batches                      ...      671
Average number of points per batch           ...       61
Average number of grid points per atom       ...     1038
Average number of shells per batch           ...   101.01 (58.05%)
Average number of basis functions per batch  ...   196.65 (54.32%)
Average number of large shells per batch     ...    68.67 (67.98%)
Average number of large basis fcns per batch ...   133.08 (67.68%)
Maximum spatial batch extension              ...  20.59, 19.72, 21.83 au
Average spatial batch extension              ...   3.34,  3.46,  3.59 au

Time for grid setup =    0.898 sec

------------------------------
INITIAL GUESS: MODEL POTENTIAL
------------------------------
Loading Hartree-Fock densities                     ... done
Calculating cut-offs                               ... done
Setting up the integral package                    ... done
Initializing the effective Hamiltonian             ... done
Starting the Coulomb interaction                   ... done (   0.8 sec)
Reading the grid                                   ... done
Mapping shells                                     ... done
Starting the XC term evaluation                    ... done (   0.7 sec)
  promolecular density results
     # of electrons  =    129.984334834
     EX              =    -98.632572486
     EC              =     -4.320125213
     EX+EC           =   -102.952697699
Transforming the Hamiltonian                       ... done (   0.0 sec)
Diagonalizing the Hamiltonian                      ... done (   0.0 sec)
Back transforming the eigenvectors                 ... done (   0.0 sec)
Now organizing SCF variables                       ... done
                      ------------------
                      INITIAL GUESS DONE (   2.5 sec)
                      ------------------
--------------
SCF ITERATIONS
--------------
ITER       Energy         Delta-E        Max-DP      RMS-DP      [F,P]     Damp
               ***  Starting incremental Fock matrix formation  ***
  0   -698.0700000545   0.000000000000 0.12666358  0.00163509  0.1608128 0.7000
  1   -698.2273150361  -0.157314981563 0.08814522  0.00123438  0.0977015 0.7000
                               ***Turning on DIIS***
  2   -698.3132641786  -0.085949142486 0.17579984  0.00260583  0.0511718 0.0000
  3   -698.4550743872  -0.141810208594 0.03794735  0.00061763  0.0362307 0.0000
  4   -698.4735068496  -0.018432462460 0.00375441  0.00011718  0.0048958 0.0000
                      *** Initiating the SOSCF procedure ***
                           *** Shutting down DIIS ***
                      *** Re-Reading the Fockian *** 
                      *** Removing any level shift *** 
ITER      Energy       Delta-E        Grad      Rot      Max-DP    RMS-DP
  5   -698.47394089  -0.0004340416  0.000306  0.000306  0.002116  0.000046
               *** Restarting incremental Fock matrix formation ***
  6   -698.47396869  -0.0000277957  0.000165  0.000421  0.000945  0.000023
  7   -698.47397219  -0.0000034991  0.000102  0.000203  0.000543  0.000010
  8   -698.47397333  -0.0000011390  0.000033  0.000072  0.000079  0.000003
  9   -698.47397337  -0.0000000483  0.000015  0.000029  0.000036  0.000001
 10   -698.47397340  -0.0000000276  0.000007  0.000023  0.000010  0.000000
 11   -698.47397341  -0.0000000077  0.000004  0.000016  0.000012  0.000000
                 **** Energy Check signals convergence ****
              ***Rediagonalizing the Fockian in SOSCF/NRSCF***

               *****************************************************
               *                     SUCCESS                       *
               *           SCF CONVERGED AFTER  12 CYCLES          *
               *****************************************************

Setting up the final grid:

General Integration Accuracy     IntAcc      ...  4.670
Radial Grid Type                 RadialGrid  ... Gauss-Chebyshev
Angular Grid (max. acc.)         AngularGrid ... Lebedev-302
Angular grid pruning method      GridPruning ... 3 (G Style)
Weight generation scheme         WeightScheme... Becke
Basis function cutoff            BFCut       ...    1.0000e-11
Integration weight cutoff        WCut        ...    1.0000e-14
Grids for H and He will be reduced by one unit

# of grid points (after initial pruning)     ... 186484 (   0.1 sec)
# of grid points (after weights+screening)   ... 159858 (   1.6 sec)
nearest neighbour list constructed           ...    0.0 sec
Grid point re-assignment to atoms done       ...    0.0 sec
Grid point division into batches done        ...    0.5 sec
Reduced shell lists constructed in    2.0 sec

Total number of grid points                  ...   159858
Total number of batches                      ...     2519
Average number of points per batch           ...       63
Average number of grid points per atom       ...     3996
Average number of shells per batch           ...    92.19 (52.98%)
Average number of basis functions per batch  ...   177.79 (49.11%)
Average number of large shells per batch     ...    61.49 (66.70%)
Average number of large basis fcns per batch ...   118.06 (66.40%)
Maximum spatial batch extension              ...  20.28, 23.56, 25.43 au
Average spatial batch extension              ...   2.19,  2.19,  2.29 au

Final grid set up in    3.7 sec
Final integration                            ... done (   3.4 sec)
Change in XC energy                          ...     0.003982625
Integrated number of electrons               ...   130.000312097
Previous integrated no of electrons          ...   129.997953615

----------------
TOTAL SCF ENERGY
----------------

Total Energy       :         -698.46999078 Eh          -19006.33471 eV

Components:
Nuclear Repulsion  :         1316.41124744 Eh           35821.37117 eV
Electronic Energy  :        -2014.88123823 Eh          -54827.70588 eV
One Electron Energy:        -3556.01595843 Eh          -96764.11362 eV
Two Electron Energy:         1541.13472021 Eh           41936.40774 eV

Virial components:
Potential Energy   :        -1389.15944798 Eh          -37800.95034 eV
Kinetic Energy     :          690.68945720 Eh           18794.61563 eV
Virial Ratio       :            2.01126488


DFT components:
N(Alpha)           :       65.000156048570 electrons
N(Beta)            :       65.000156048570 electrons
N(Total)           :      130.000312097140 electrons
E(XC)              :      -72.096049994897 Eh       
DFET-embed. en.    :        0.000000000000 Eh       

---------------
SCF CONVERGENCE
---------------

  Last Energy change         ...   -1.1376e-09  Tolerance :   1.0000e-08
  Last MAX-Density change    ...    2.2538e-06  Tolerance :   1.0000e-07
  Last RMS-Density change    ...    6.4898e-08  Tolerance :   5.0000e-09
  Last Orbital Gradient      ...    9.5498e-07  Tolerance :   1.0000e-05
  Last Orbital Rotation      ...    1.4645e-06  Tolerance :   1.0000e-05

             **** THE GBW FILE WAS UPDATED (022277907.gbw) ****
             **** DENSITY FILE WAS UPDATED (022277907.scfp) ****
             **** ENERGY FILE WAS UPDATED (022277907.en.tmp) ****
             **** THE GBW FILE WAS UPDATED (022277907.gbw) ****
             **** DENSITY FILE WAS UPDATED (022277907.scfp) ****
----------------
ORBITAL ENERGIES
----------------

  NO   OCC          E(Eh)            E(eV) 
   0   2.0000     -10.305555      -280.4284 
   1   2.0000     -10.293566      -280.1022 
   2   2.0000     -10.292545      -280.0744 
   3   2.0000     -10.288491      -279.9641 
   4   2.0000     -10.287884      -279.9476 
   5   2.0000     -10.286547      -279.9112 
   6   2.0000     -10.286421      -279.9077 
   7   2.0000     -10.286080      -279.8985 
   8   2.0000     -10.285465      -279.8817 
   9   2.0000     -10.284364      -279.8518 
  10   2.0000     -10.284256      -279.8488 
  11   2.0000     -10.283898      -279.8391 
  12   2.0000     -10.282880      -279.8114 
  13   2.0000     -10.281844      -279.7832 
  14   2.0000     -10.279709      -279.7251 
  15   2.0000     -10.279135      -279.7095 
  16   2.0000     -10.270458      -279.4734 
  17   2.0000     -10.264254      -279.3046 
  18   2.0000      -0.990509       -26.9531 
  19   2.0000      -0.967390       -26.3240 
  20   2.0000      -0.936460       -25.4824 
  21   2.0000      -0.899695       -24.4819 
  22   2.0000      -0.857668       -23.3383 
  23   2.0000      -0.855945       -23.2914 
  24   2.0000      -0.849073       -23.1045 
  25   2.0000      -0.831337       -22.6218 
  26   2.0000      -0.791917       -21.5491 
  27   2.0000      -0.784779       -21.3549 
  28   2.0000      -0.740022       -20.1370 
  29   2.0000      -0.712641       -19.3919 
  30   2.0000      -0.705853       -19.2072 
  31   2.0000      -0.697967       -18.9926 
  32   2.0000      -0.669793       -18.2260 
  33   2.0000      -0.653683       -17.7876 
  34   2.0000      -0.626293       -17.0423 
  35   2.0000      -0.611072       -16.6281 
  36   2.0000      -0.574689       -15.6381 
  37   2.0000      -0.564822       -15.3696 
  38   2.0000      -0.557376       -15.1670 
  39   2.0000      -0.547530       -14.8990 
  40   2.0000      -0.544258       -14.8100 
  41   2.0000      -0.540281       -14.7018 
  42   2.0000      -0.528302       -14.3758 
  43   2.0000      -0.521215       -14.1830 
  44   2.0000      -0.519272       -14.1301 
  45   2.0000      -0.515483       -14.0270 
  46   2.0000      -0.512572       -13.9478 
  47   2.0000      -0.487374       -13.2621 
  48   2.0000      -0.479536       -13.0488 
  49   2.0000      -0.473339       -12.8802 
  50   2.0000      -0.468393       -12.7456 
  51   2.0000      -0.463876       -12.6227 
  52   2.0000      -0.460145       -12.5212 
  53   2.0000      -0.447454       -12.1759 
  54   2.0000      -0.440596       -11.9892 
  55   2.0000      -0.435635       -11.8542 
  56   2.0000      -0.424420       -11.5491 
  57   2.0000      -0.421684       -11.4746 
  58   2.0000      -0.409263       -11.1366 
  59   2.0000      -0.402298       -10.9471 
  60   2.0000      -0.398315       -10.8387 
  61   2.0000      -0.343952        -9.3594 
  62   2.0000      -0.338803        -9.2193 
  63   2.0000      -0.337243        -9.1768 
  64   2.0000      -0.317217        -8.6319 
  65   0.0000       0.063493         1.7277 
  66   0.0000       0.068304         1.8586 
  67   0.0000       0.075223         2.0469 
  68   0.0000       0.082726         2.2511 
  69   0.0000       0.138836         3.7779 
  70   0.0000       0.157594         4.2884 
  71   0.0000       0.160320         4.3625 
  72   0.0000       0.166777         4.5382 
  73   0.0000       0.175637         4.7793 
  74   0.0000       0.187173         5.0932 
  75   0.0000       0.197275         5.3681 
  76   0.0000       0.198186         5.3929 
  77   0.0000       0.204400         5.5620 
  78   0.0000       0.212937         5.7943 
  79   0.0000       0.215041         5.8516 
  80   0.0000       0.220380         5.9969 
  81   0.0000       0.221066         6.0155 
  82   0.0000       0.228917         6.2291 
  83   0.0000       0.240946         6.5565 
  84   0.0000       0.242816         6.6074 
  85   0.0000       0.245402         6.6777 
  86   0.0000       0.251697         6.8490 
  87   0.0000       0.253789         6.9059 
  88   0.0000       0.261345         7.1115 
  89   0.0000       0.265678         7.2295 
  90   0.0000       0.269244         7.3265 
  91   0.0000       0.279789         7.6135 
  92   0.0000       0.285272         7.7627 
  93   0.0000       0.295224         8.0335 
  94   0.0000       0.314417         8.5557 
  95   0.0000       0.325696         8.8626 
  96   0.0000       0.344206         9.3663 
  97   0.0000       0.355927         9.6853 
  98   0.0000       0.361143         9.8272 
  99   0.0000       0.375807        10.2262 
 100   0.0000       0.383357        10.4317 
 101   0.0000       0.384728        10.4690 
 102   0.0000       0.389208        10.5909 
 103   0.0000       0.396949        10.8015 
 104   0.0000       0.407455        11.0874 
 105   0.0000       0.419048        11.4029 
 106   0.0000       0.426983        11.6188 
 107   0.0000       0.444866        12.1054 
 108   0.0000       0.452468        12.3123 
 109   0.0000       0.478948        13.0328 
 110   0.0000       0.485111        13.2005 
 111   0.0000       0.485884        13.2216 
 112   0.0000       0.491969        13.3872 
 113   0.0000       0.512576        13.9479 
 114   0.0000       0.519264        14.1299 
 115   0.0000       0.526932        14.3386 
 116   0.0000       0.531500        14.4628 
 117   0.0000       0.543662        14.7938 
 118   0.0000       0.544758        14.8236 
 119   0.0000       0.553248        15.0547 
 120   0.0000       0.555978        15.1289 
 121   0.0000       0.578136        15.7319 
 122   0.0000       0.582549        15.8520 
 123   0.0000       0.589345        16.0369 
 124   0.0000       0.593278        16.1439 
 125   0.0000       0.599118        16.3028 
 126   0.0000       0.614871        16.7315 
 127   0.0000       0.618825        16.8391 
 128   0.0000       0.622622        16.9424 
 129   0.0000       0.633627        17.2419 
 130   0.0000       0.643425        17.5085 
 131   0.0000       0.654407        17.8073 
 132   0.0000       0.665365        18.1055 
 133   0.0000       0.668417        18.1885 
 134   0.0000       0.681380        18.5413 
 135   0.0000       0.688209        18.7271 
 136   0.0000       0.698016        18.9940 
 137   0.0000       0.704466        19.1695 
 138   0.0000       0.706728        19.2310 
 139   0.0000       0.717517        19.5246 
 140   0.0000       0.729794        19.8587 
 141   0.0000       0.737343        20.0641 
 142   0.0000       0.740462        20.1490 
 143   0.0000       0.744988        20.2722 
 144   0.0000       0.748226        20.3603 
 145   0.0000       0.753040        20.4913 
 146   0.0000       0.756155        20.5760 
 147   0.0000       0.758953        20.6522 
 148   0.0000       0.761326        20.7167 
 149   0.0000       0.764387        20.8000 
 150   0.0000       0.773127        21.0378 
 151   0.0000       0.776466        21.1287 
 152   0.0000       0.782082        21.2815 
 153   0.0000       0.784291        21.3416 
 154   0.0000       0.790860        21.5204 
 155   0.0000       0.796380        21.6706 
 156   0.0000       0.797482        21.7006 
 157   0.0000       0.804006        21.8781 
 158   0.0000       0.806072        21.9343 
 159   0.0000       0.812262        22.1028 
 160   0.0000       0.812415        22.1069 
 161   0.0000       0.818389        22.2695 
 162   0.0000       0.824177        22.4270 
 163   0.0000       0.826850        22.4997 
 164   0.0000       0.835673        22.7398 
 165   0.0000       0.844660        22.9844 
 166   0.0000       0.847790        23.0695 
 167   0.0000       0.855865        23.2893 
 168   0.0000       0.860137        23.4055 
 169   0.0000       0.861231        23.4353 
 170   0.0000       0.867247        23.5990 
 171   0.0000       0.876478        23.8502 
 172   0.0000       0.884791        24.0764 
 173   0.0000       0.897236        24.4150 
 174   0.0000       0.900183        24.4952 
 175   0.0000       0.904116        24.6023 
 176   0.0000       0.914957        24.8973 
 177   0.0000       0.932482        25.3741 
 178   0.0000       0.942971        25.6596 
 179   0.0000       0.946240        25.7485 
 180   0.0000       0.955981        26.0136 
 181   0.0000       0.973143        26.4806 
 182   0.0000       1.007925        27.4270 
 183   0.0000       1.029956        28.0265 
 184   0.0000       1.039543        28.2874 
 185   0.0000       1.046718        28.4826 
 186   0.0000       1.060235        28.8505 
 187   0.0000       1.060980        28.8707 
 188   0.0000       1.081355        29.4252 
 189   0.0000       1.107255        30.1299 
 190   0.0000       1.138216        30.9724 
 191   0.0000       1.157590        31.4996 
 192   0.0000       1.176774        32.0217 
 193   0.0000       1.192820        32.4583 
 194   0.0000       1.206360        32.8267 
 195   0.0000       1.220412        33.2091 
 196   0.0000       1.247093        33.9351 
 197   0.0000       1.253195        34.1012 
 198   0.0000       1.269861        34.5547 
 199   0.0000       1.302044        35.4304 
 200   0.0000       1.306073        35.5400 
 201   0.0000       1.323784        36.0220 
 202   0.0000       1.336128        36.3579 
 203   0.0000       1.347208        36.6594 
 204   0.0000       1.352619        36.8066 
 205   0.0000       1.367261        37.2051 
 206   0.0000       1.376179        37.4477 
 207   0.0000       1.379269        37.5318 
 208   0.0000       1.385814        37.7099 
 209   0.0000       1.396931        38.0124 
 210   0.0000       1.404519        38.2189 
 211   0.0000       1.419453        38.6253 
 212   0.0000       1.430902        38.9368 
 213   0.0000       1.443027        39.2668 
 214   0.0000       1.450965        39.4828 
 215   0.0000       1.462879        39.8070 
 216   0.0000       1.472699        40.0742 
 217   0.0000       1.508105        41.0376 
 218   0.0000       1.524855        41.4934 
 219   0.0000       1.538391        41.8617 
 220   0.0000       1.620729        44.1023 
 221   0.0000       1.625327        44.2274 
 222   0.0000       1.641128        44.6574 
 223   0.0000       1.651427        44.9376 
 224   0.0000       1.654194        45.0129 
 225   0.0000       1.656476        45.0750 
 226   0.0000       1.679370        45.6980 
 227   0.0000       1.704394        46.3789 
 228   0.0000       1.730974        47.1022 
 229   0.0000       1.742806        47.4242 
 230   0.0000       1.767953        48.1084 
 231   0.0000       1.778099        48.3845 
 232   0.0000       1.787501        48.6404 
 233   0.0000       1.794009        48.8175 
 234   0.0000       1.812388        49.3176 
 235   0.0000       1.815551        49.4037 
 236   0.0000       1.823976        49.6329 
 237   0.0000       1.834018        49.9062 
 238   0.0000       1.841727        50.1159 
 239   0.0000       1.851059        50.3699 
 240   0.0000       1.860473        50.6260 
 241   0.0000       1.867770        50.8246 
 242   0.0000       1.870610        50.9019 
 243   0.0000       1.872097        50.9423 
 244   0.0000       1.877052        51.0772 
 245   0.0000       1.880052        51.1588 
 246   0.0000       1.885592        51.3096 
 247   0.0000       1.892034        51.4849 
 248   0.0000       1.900284        51.7094 
 249   0.0000       1.906597        51.8811 
 250   0.0000       1.911062        52.0026 
 251   0.0000       1.917431        52.1759 
 252   0.0000       1.920839        52.2687 
 253   0.0000       1.926593        52.4253 
 254   0.0000       1.939643        52.7804 
 255   0.0000       1.944857        52.9222 
 256   0.0000       1.951698        53.1084 
 257   0.0000       1.964398        53.4540 
 258   0.0000       1.971953        53.6596 
 259   0.0000       1.975680        53.7610 
 260   0.0000       1.985879        54.0385 
 261   0.0000       2.003969        54.5308 
 262   0.0000       2.011272        54.7295 
 263   0.0000       2.016408        54.8693 
 264   0.0000       2.027100        55.1602 
 265   0.0000       2.043587        55.6088 
 266   0.0000       2.043771        55.6138 
 267   0.0000       2.054719        55.9118 
 268   0.0000       2.059048        56.0295 
 269   0.0000       2.066808        56.2407 
 270   0.0000       2.076973        56.5173 
 271   0.0000       2.093919        56.9784 
 272   0.0000       2.099739        57.1368 
 273   0.0000       2.101391        57.1818 
 274   0.0000       2.106732        57.3271 
 275   0.0000       2.108150        57.3657 
 276   0.0000       2.116707        57.5985 
 277   0.0000       2.123137        57.7735 
 278   0.0000       2.142096        58.2894 
 279   0.0000       2.151837        58.5545 
 280   0.0000       2.162850        58.8541 
 281   0.0000       2.173031        59.1312 
 282   0.0000       2.189415        59.5770 
 283   0.0000       2.206095        60.0309 
 284   0.0000       2.209566        60.1254 
 285   0.0000       2.238341        60.9083 
 286   0.0000       2.244445        61.0745 
 287   0.0000       2.256517        61.4029 
 288   0.0000       2.267292        61.6962 
 289   0.0000       2.271713        61.8165 
 290   0.0000       2.282304        62.1046 
 291   0.0000       2.284898        62.1752 
 292   0.0000       2.324556        63.2544 
 293   0.0000       2.331180        63.4346 
 294   0.0000       2.335406        63.5496 
 295   0.0000       2.373150        64.5767 
 296   0.0000       2.384291        64.8799 
 297   0.0000       2.408801        65.5468 
 298   0.0000       2.414330        65.6973 
 299   0.0000       2.417388        65.7805 
 300   0.0000       2.425907        66.0123 
 301   0.0000       2.429587        66.1124 
 302   0.0000       2.440301        66.4040 
 303   0.0000       2.446079        66.5612 
 304   0.0000       2.459470        66.9256 
 305   0.0000       2.469393        67.1956 
 306   0.0000       2.472261        67.2736 
 307   0.0000       2.491478        67.7966 
 308   0.0000       2.503610        68.1267 
 309   0.0000       2.508362        68.2560 
 310   0.0000       2.531747        68.8923 
 311   0.0000       2.536277        69.0156 
 312   0.0000       2.558851        69.6299 
 313   0.0000       2.576710        70.1158 
 314   0.0000       2.604869        70.8821 
 315   0.0000       2.617188        71.2173 
 316   0.0000       2.633170        71.6522 
 317   0.0000       2.649550        72.0979 
 318   0.0000       2.682681        72.9995 
 319   0.0000       2.683199        73.0135 
 320   0.0000       2.710835        73.7656 
 321   0.0000       2.731197        74.3196 
 322   0.0000       2.740244        74.5658 
 323   0.0000       2.750309        74.8397 
 324   0.0000       2.757903        75.0464 
 325   0.0000       2.767553        75.3090 
 326   0.0000       2.772609        75.4465 
 327   0.0000       2.780006        75.6478 
 328   0.0000       2.789067        75.8944 
 329   0.0000       2.806329        76.3641 
 330   0.0000       2.831730        77.0553 
 331   0.0000       2.857176        77.7477 
 332   0.0000       2.864589        77.9494 
 333   0.0000       2.867227        78.0212 
 334   0.0000       2.871824        78.1463 
 335   0.0000       2.888299        78.5946 
 336   0.0000       2.935053        79.8669 
 337   0.0000       2.966708        80.7282 
 338   0.0000       2.976078        80.9832 
 339   0.0000       2.997413        81.5638 
 340   0.0000       3.011391        81.9441 
 341   0.0000       3.014948        82.0409 
 342   0.0000       3.018440        82.1359 
 343   0.0000       3.030538        82.4651 
 344   0.0000       3.033653        82.5499 
 345   0.0000       3.052624        83.0661 
 346   0.0000       3.072680        83.6119 
 347   0.0000       3.084707        83.9391 
 348   0.0000       3.119968        84.8986 
 349   0.0000       3.139249        85.4233 
 350   0.0000       3.152717        85.7898 
 351   0.0000       3.185573        86.6838 
 352   0.0000       3.201280        87.1113 
 353   0.0000       3.216377        87.5221 
 354   0.0000       3.231632        87.9372 
 355   0.0000       3.242022        88.2199 
 356   0.0000       3.263539        88.8054 
 357   0.0000       3.271057        89.0100 
 358   0.0000       3.369536        91.6897 
 359   0.0000       3.404941        92.6531 
 360   0.0000       3.776284       102.7579 
 361   0.0000       3.787203       103.0550 

                    ********************************
                    * MULLIKEN POPULATION ANALYSIS *
                    ********************************

-----------------------
MULLIKEN ATOMIC CHARGES
-----------------------
   0 C :    0.008597
   1 H :    0.018049
   2 H :    0.022395
   3 H :    0.038786
   4 C :   -0.176557
   5 C :    0.008516
   6 H :    0.024373
   7 H :    0.023485
   8 H :    0.023381
   9 H :    0.018154
  10 C :    0.099982
  11 H :    0.017195
  12 H :    0.014367
  13 C :   -0.264828
  14 C :    0.010364
  15 C :   -0.044720
  16 C :   -0.003017
  17 C :   -0.005495
  18 C :   -0.007105
  19 C :   -0.015980
  20 H :    0.009578
  21 H :    0.006910
  22 H :    0.009317
  23 H :    0.006174
  24 H :   -0.006023
  25 C :    0.034174
  26 C :   -0.031403
  27 C :   -0.007702
  28 C :   -0.006582
  29 C :   -0.003562
  30 C :   -0.049537
  31 H :   -0.003252
  32 H :    0.008034
  33 H :    0.010857
  34 H :    0.009984
  35 H :    0.013965
  36 C :    0.104877
  37 H :    0.023298
  38 H :    0.030958
  39 H :    0.029991
Sum of atomic charges:   -0.0000000

--------------------------------
MULLIKEN REDUCED ORBITAL CHARGES
--------------------------------
  0 C s       :     2.981039  s :     2.981039
      pz      :     0.972847  p :     2.982007
      px      :     0.991738
      py      :     1.017423
      dz2     :     0.007504  d :     0.028357
      dxz     :     0.004010
      dyz     :     0.006037
      dx2y2   :     0.008848
      dxy     :     0.001958
  1 H s       :     0.958352  s :     0.958352
      pz      :     0.010830  p :     0.023599
      px      :     0.005341
      py      :     0.007427
  2 H s       :     0.953964  s :     0.953964
      pz      :     0.004603  p :     0.023641
      px      :     0.013892
      py      :     0.005146
  3 H s       :     0.936346  s :     0.936346
      pz      :     0.004618  p :     0.024868
      px      :     0.005351
      py      :     0.014900
  4 C s       :     3.121602  s :     3.121602
      pz      :     1.033556  p :     3.010786
      px      :     0.974367
      py      :     1.002862
      dz2     :     0.008289  d :     0.044169
      dxz     :     0.007709
      dyz     :     0.009425
      dx2y2   :     0.011398
      dxy     :     0.007347
  5 C s       :     2.986034  s :     2.986034
      pz      :     1.004750  p :     2.976679
      px      :     1.009014
      py      :     0.962915
      dz2     :     0.005070  d :     0.028771
      dxz     :     0.003475
      dyz     :     0.008072
      dx2y2   :     0.008270
      dxy     :     0.003884
  6 H s       :     0.952107  s :     0.952107
      pz      :     0.010691  p :     0.023520
      px      :     0.005781
      py      :     0.007048
  7 H s       :     0.952920  s :     0.952920
      pz      :     0.011352  p :     0.023595
      px      :     0.006834
      py      :     0.005408
  8 H s       :     0.952954  s :     0.952954
      pz      :     0.005209  p :     0.023665
      px      :     0.014209
      py      :     0.004248
  9 H s       :     0.960285  s :     0.960285
      pz      :     0.010370  p :     0.021561
      px      :     0.004456
      py      :     0.006735
 10 C s       :     2.980856  s :     2.980856
      pz      :     0.976687  p :     2.885246
      px      :     0.950240
      py      :     0.958319
      dz2     :     0.009010  d :     0.033916
      dxz     :     0.005203
      dyz     :     0.004182
      dx2y2   :     0.007548
      dxy     :     0.007974
 11 H s       :     0.959980  s :     0.959980
      pz      :     0.005381  p :     0.022826
      px      :     0.005792
      py      :     0.011652
 12 H s       :     0.963032  s :     0.963032
      pz      :     0.013862  p :     0.022601
      px      :     0.004153
      py      :     0.004586
 13 C s       :     3.183176  s :     3.183176
      pz      :     1.091778  p :     3.031933
      px      :     0.952368
      py      :     0.987787
      dz2     :     0.011712  d :     0.049719
      dxz     :     0.008266
      dyz     :     0.009280
      dx2y2   :     0.010646
      dxy     :     0.009816
 14 C s       :     3.071164  s :     3.071164
      pz      :     0.958866  p :     2.875445
      px      :     0.963587
      py      :     0.952991
      dz2     :     0.006049  d :     0.043028
      dxz     :     0.007340
      dyz     :     0.006611
      dx2y2   :     0.011373
      dxy     :     0.011654
 15 C s       :     3.217949  s :     3.217949
      pz      :     0.992148  p :     2.791407
      px      :     0.906504
      py      :     0.892755
      dz2     :     0.004418  d :     0.035364
      dxz     :     0.007110
      dyz     :     0.004118
      dx2y2   :     0.009639
      dxy     :     0.010080
 16 C s       :     3.140776  s :     3.140776
      pz      :     0.958187  p :     2.825798
      px      :     0.946593
      py      :     0.921018
      dz2     :     0.003247  d :     0.036443
      dxz     :     0.006901
      dyz     :     0.005429
      dx2y2   :     0.009805
      dxy     :     0.011060
 17 C s       :     3.144107  s :     3.144107
      pz      :     0.983192  p :     2.825275
      px      :     0.874467
      py      :     0.967616
      dz2     :     0.004996  d :     0.036113
      dxz     :     0.004562
      dyz     :     0.006493
      dx2y2   :     0.010892
      dxy     :     0.009169
 18 C s       :     3.148211  s :     3.148211
      pz      :     0.969763  p :     2.822375
      px      :     0.955929
      py      :     0.896683
      dz2     :     0.004587  d :     0.036519
      dxz     :     0.007380
      dyz     :     0.004226
      dx2y2   :     0.009838
      dxy     :     0.010488
 19 C s       :     3.212081  s :     3.212081
      pz      :     0.946803  p :     2.768651
      px      :     0.880826
      py      :     0.941022
      dz2     :     0.003259  d :     0.035248
      dxz     :     0.006679
      dyz     :     0.005046
      dx2y2   :     0.009439
      dxy     :     0.010826
 20 H s       :     0.966423  s :     0.966423
      pz      :     0.007247  p :     0.023999
      px      :     0.007613
      py      :     0.009138
 21 H s       :     0.969670  s :     0.969670
      pz      :     0.005437  p :     0.023419
      px      :     0.005414
      py      :     0.012569
 22 H s       :     0.967364  s :     0.967364
      pz      :     0.004858  p :     0.023319
      px      :     0.014417
      py      :     0.004043
 23 H s       :     0.970412  s :     0.970412
      pz      :     0.007410  p :     0.023414
      px      :     0.007092
      py      :     0.008912
 24 H s       :     0.981911  s :     0.981911
      pz      :     0.005691  p :     0.024112
      px      :     0.005551
      py      :     0.012871
 25 C s       :     3.057327  s :     3.057327
      pz      :     0.933850  p :     2.865853
      px      :     0.981181
      py      :     0.950823
      dz2     :     0.010424  d :     0.042646
      dxz     :     0.008139
      dyz     :     0.010111
      dx2y2   :     0.007268
      dxy     :     0.006704
 26 C s       :     3.217550  s :     3.217550
      pz      :     0.930056  p :     2.778740
      px      :     0.917503
      py      :     0.931181
      dz2     :     0.007576  d :     0.035113
      dxz     :     0.007349
      dyz     :     0.008953
      dx2y2   :     0.005627
      dxy     :     0.005609
 27 C s       :     3.150107  s :     3.150107
      pz      :     0.888941  p :     2.821336
      px      :     0.974251
      py      :     0.958144
      dz2     :     0.008085  d :     0.036259
      dxz     :     0.005758
      dyz     :     0.008641
      dx2y2   :     0.007479
      dxy     :     0.006297
 28 C s       :     3.144879  s :     3.144879
      pz      :     0.964366  p :     2.825784
      px      :     0.953786
      py      :     0.907633
      dz2     :     0.009866  d :     0.035919
      dxz     :     0.007852
      dyz     :     0.008418
      dx2y2   :     0.004335
      dxy     :     0.005448
 29 C s       :     3.144416  s :     3.144416
      pz      :     0.916101  p :     2.822946
      px      :     0.940617
      py      :     0.966227
      dz2     :     0.007859  d :     0.036200
      dxz     :     0.007840
      dyz     :     0.009156
      dx2y2   :     0.005735
      dxy     :     0.005609
 30 C s       :     3.203808  s :     3.203808
      pz      :     0.886486  p :     2.810565
      px      :     0.986174
      py      :     0.937905
      dz2     :     0.008006  d :     0.035164
      dxz     :     0.005575
      dyz     :     0.008337
      dx2y2   :     0.007090
      dxy     :     0.006156
 31 H s       :     0.979658  s :     0.979658
      pz      :     0.013311  p :     0.023594
      px      :     0.004402
      py      :     0.005881
 32 H s       :     0.968834  s :     0.968834
      pz      :     0.008664  p :     0.023132
      px      :     0.008762
      py      :     0.005705
 33 H s       :     0.966050  s :     0.966050
      pz      :     0.004140  p :     0.023093
      px      :     0.007173
      py      :     0.011780
 34 H s       :     0.966914  s :     0.966914
      pz      :     0.013015  p :     0.023101
      px      :     0.004243
      py      :     0.005844
 35 H s       :     0.962522  s :     0.962522
      pz      :     0.008519  p :     0.023512
      px      :     0.009309
      py      :     0.005684
 36 C s       :     2.931223  s :     2.931223
      pz      :     0.935930  p :     2.935936
      px      :     0.998251
      py      :     1.001755
      dz2     :     0.006705  d :     0.027964
      dxz     :     0.004666
      dyz     :     0.006463
      dx2y2   :     0.003748
      dxy     :     0.006381
 37 H s       :     0.952040  s :     0.952040
      pz      :     0.005145  p :     0.024663
      px      :     0.013408
      py      :     0.006109
 38 H s       :     0.945287  s :     0.945287
      pz      :     0.004038  p :     0.023756
      px      :     0.009182
      py      :     0.010535
 39 H s       :     0.946392  s :     0.946392
      pz      :     0.006991  p :     0.023617
      px      :     0.006108
      py      :     0.010518


                     *******************************
                     * LOEWDIN POPULATION ANALYSIS *
                     *******************************

----------------------
LOEWDIN ATOMIC CHARGES
----------------------
   0 C :   -0.053610
   1 H :    0.019638
   2 H :    0.022596
   3 H :    0.026612
   4 C :   -0.042764
   5 C :   -0.054627
   6 H :    0.021996
   7 H :    0.020306
   8 H :    0.022723
   9 H :    0.018620
  10 C :   -0.012116
  11 H :    0.020135
  12 H :    0.022144
  13 C :   -0.037968
  14 C :   -0.010692
  15 C :   -0.036856
  16 C :   -0.027734
  17 C :   -0.036131
  18 C :   -0.026461
  19 C :   -0.021613
  20 H :    0.029622
  21 H :    0.028742
  22 H :    0.028156
  23 H :    0.028193
  24 H :    0.025830
  25 C :   -0.012296
  26 C :   -0.020695
  27 C :   -0.027646
  28 C :   -0.035135
  29 C :   -0.027602
  30 C :   -0.037522
  31 H :    0.026460
  32 H :    0.029185
  33 H :    0.028979
  34 H :    0.030084
  35 H :    0.030714
  36 C :   -0.035402
  37 H :    0.019781
  38 H :    0.030213
  39 H :    0.026138

-------------------------------
LOEWDIN REDUCED ORBITAL CHARGES
-------------------------------
  0 C s       :     2.829626  s :     2.829626
      pz      :     1.033915  p :     3.150390
      px      :     1.052025
      py      :     1.064450
      dz2     :     0.018331  d :     0.073594
      dxz     :     0.011413
      dyz     :     0.015883
      dx2y2   :     0.022863
      dxy     :     0.005103
  1 H s       :     0.913840  s :     0.913840
      pz      :     0.031765  p :     0.066522
      px      :     0.014466
      py      :     0.020291
  2 H s       :     0.910876  s :     0.910876
      pz      :     0.013587  p :     0.066529
      px      :     0.039382
      py      :     0.013560
  3 H s       :     0.903846  s :     0.903846
      pz      :     0.014027  p :     0.069542
      px      :     0.014760
      py      :     0.040755
  4 C s       :     2.833008  s :     2.833008
[...]
      pz      :     0.003937  p :     0.022957
      px      :     0.008456
      py      :     0.010564
 39 H s       :     0.941676  s :     0.941676
      pz      :     0.006746  p :     0.022976
      px      :     0.006081
      py      :     0.010149


                     *******************************
                     * LOEWDIN POPULATION ANALYSIS *
                     *******************************

----------------------
LOEWDIN ATOMIC CHARGES
----------------------
   0 C :   -0.058555
   1 H :    0.020626
   2 H :    0.024528
   3 H :    0.030137
   4 C :   -0.044407
   5 C :   -0.059542
   6 H :    0.023489
   7 H :    0.023007
   8 H :    0.024674
   9 H :    0.019344
  10 C :   -0.017051
  11 H :    0.022110
  12 H :    0.023239
  13 C :   -0.035286
  14 C :   -0.010871
  15 C :   -0.039777
  16 C :   -0.030601
  17 C :   -0.038031
  18 C :   -0.029436
  19 C :   -0.023895
  20 H :    0.031653
  21 H :    0.032016
  22 H :    0.031304
  23 H :    0.030817
  24 H :    0.029117
  25 C :   -0.013626
  26 C :   -0.024312
  27 C :   -0.030380
  28 C :   -0.037647
  29 C :   -0.030615
  30 C :   -0.039202
  31 H :    0.028797
  32 H :    0.031950
  33 H :    0.031810
  34 H :    0.032766
  35 H :    0.033414
  36 C :   -0.042055
  37 H :    0.021200
  38 H :    0.031763
  39 H :    0.027527

-------------------------------
LOEWDIN REDUCED ORBITAL CHARGES
-------------------------------
  0 C s       :     2.840202  s :     2.840202
      pz      :     1.036660  p :     3.146994
      px      :     1.047078
      py      :     1.063256
      dz2     :     0.019821  d :     0.071359
      dxz     :     0.011282
      dyz     :     0.012024
      dx2y2   :     0.022630
      dxy     :     0.005603
  1 H s       :     0.915089  s :     0.915089
      pz      :     0.033974  p :     0.064285
      px      :     0.013489
      py      :     0.016823
  2 H s       :     0.911062  s :     0.911062
      pz      :     0.012896  p :     0.064409
      px      :     0.038172
      py      :     0.013341
  3 H s       :     0.902450  s :     0.902450
      pz      :     0.012700  p :     0.067412
      px      :     0.013391
      py      :     0.041321
  4 C s       :     2.837261  s :     2.837261
      pz      :     1.051075  p :     3.104514
      px      :     1.020493
      py      :     1.032946
      dz2     :     0.021234  d :     0.102632
      dxz     :     0.017595
      dyz     :     0.018810
      dx2y2   :     0.028980
      dxy     :     0.016013
  5 C s       :     2.842919  s :     2.842919
      pz      :     1.061635  p :     3.144525
      px      :     1.061669
      py      :     1.021220
      dz2     :     0.013325  d :     0.072098
      dxz     :     0.009212
      dyz     :     0.018281
      dx2y2   :     0.021011
      dxy     :     0.010270
  6 H s       :     0.912168  s :     0.912168
      pz      :     0.030859  p :     0.064343
      px      :     0.014470
      py      :     0.019014
  7 H s       :     0.912680  s :     0.912680
      pz      :     0.028475  p :     0.064313
      px      :     0.018484
      py      :     0.017354
  8 H s       :     0.910924  s :     0.910924
      pz      :     0.012670  p :     0.064402
      px      :     0.038393
      py      :     0.013339
  9 H s       :     0.913691  s :     0.913691
      pz      :     0.033361  p :     0.066966
      px      :     0.015241
      py      :     0.018363
 10 C s       :     2.842847  s :     2.842847
      pz      :     1.043188  p :     3.088854
      px      :     1.023091
      py      :     1.022575
      dz2     :     0.023479  d :     0.085350
      dxz     :     0.011214
      dyz     :     0.011047
      dx2y2   :     0.018414
      dxy     :     0.021196
 11 H s       :     0.911199  s :     0.911199
      pz      :     0.014695  p :     0.066691
      px      :     0.019732
      py      :     0.032265
 12 H s       :     0.910233  s :     0.910233
      pz      :     0.039635  p :     0.066528
      px      :     0.013439
      py      :     0.013454
 13 C s       :     2.840263  s :     2.840263
      pz      :     1.038785  p :     3.080176
      px      :     1.013291
      py      :     1.028100
      dz2     :     0.028634  d :     0.114847
      dxz     :     0.016402
      dyz     :     0.020695
      dx2y2   :     0.025450
      dxy     :     0.023666
 14 C s       :     2.856930  s :     2.856930
      pz      :     0.981705  p :     3.048537
      px      :     1.020275
      py      :     1.046557
      dz2     :     0.013398  d :     0.105404
      dxz     :     0.017983
      dyz     :     0.016124
      dx2y2   :     0.028989
      dxy     :     0.028909
 15 C s       :     2.856806  s :     2.856806
      pz      :     1.007979  p :     3.092564
      px      :     1.053601
      py      :     1.030983
      dz2     :     0.010101  d :     0.090407
      dxz     :     0.018305
      dyz     :     0.010617
      dx2y2   :     0.024964
      dxy     :     0.026420
 16 C s       :     2.858457  s :     2.858457
      pz      :     0.991537  p :     3.080938
      px      :     1.055110
      py      :     1.034291
      dz2     :     0.007759  d :     0.091206
      dxz     :     0.017080
      dyz     :     0.012564
      dx2y2   :     0.025624
      dxy     :     0.028180
 17 C s       :     2.859014  s :     2.859014
      pz      :     1.003796  p :     3.088287
      px      :     1.037045
      py      :     1.047447
      dz2     :     0.011726  d :     0.090730
      dxz     :     0.011979
      dyz     :     0.016293
      dx2y2   :     0.027171
      dxy     :     0.023561
 18 C s       :     2.858400  s :     2.858400
      pz      :     0.994463  p :     3.079574
      px      :     1.059990
      py      :     1.025121
      dz2     :     0.010263  d :     0.091463
      dxz     :     0.018523
      dyz     :     0.010660
      dx2y2   :     0.025037
      dxy     :     0.026979
 19 C s       :     2.857386  s :     2.857386
      pz      :     0.992677  p :     3.076329
      px      :     1.052525
      py      :     1.031128
      dz2     :     0.007725  d :     0.090179
      dxz     :     0.016749
      dyz     :     0.011805
      dx2y2   :     0.024897
      dxy     :     0.029003
 20 H s       :     0.900376  s :     0.900376
      pz      :     0.021939  p :     0.067970
      px      :     0.019974
      py      :     0.026057
 21 H s       :     0.901405  s :     0.901405
      pz      :     0.016835  p :     0.066580
      px      :     0.016982
      py      :     0.032763
 22 H s       :     0.901790  s :     0.901790
      pz      :     0.014382  p :     0.066906
      px      :     0.039875
      py      :     0.012649
 23 H s       :     0.902505  s :     0.902505
      pz      :     0.022321  p :     0.066678
      px      :     0.019202
      py      :     0.025155
 24 H s       :     0.901488  s :     0.901488
      pz      :     0.017735  p :     0.069396
      px      :     0.017956
      py      :     0.033705
 25 C s       :     2.856055  s :     2.856055
      pz      :     1.059397  p :     3.051938
      px      :     0.995252
      py      :     0.997290
      dz2     :     0.026816  d :     0.105634
      dxz     :     0.020938
      dyz     :     0.025575
      dx2y2   :     0.015339
      dxy     :     0.016966
 26 C s       :     2.858335  s :     2.858335
      pz      :     1.038485  p :     3.075862
      px      :     1.008313
      py      :     1.029064
      dz2     :     0.020146  d :     0.090115
      dxz     :     0.018867
      dyz     :     0.023947
      dx2y2   :     0.012686
      dxy     :     0.014469
 27 C s       :     2.858725  s :     2.858725
      pz      :     1.032418  p :     3.080436
      px      :     1.016646
      py      :     1.031372
      dz2     :     0.020367  d :     0.091219
      dxz     :     0.015704
      dyz     :     0.021139
      dx2y2   :     0.016730
      dxy     :     0.017279
 28 C s       :     2.859161  s :     2.859161
      pz      :     1.056412  p :     3.087947
      px      :     1.012775
      py      :     1.018760
      dz2     :     0.025351  d :     0.090538
      dxz     :     0.020683
      dyz     :     0.021695
      dx2y2   :     0.009210
      dxy     :     0.013598
 29 C s       :     2.858668  s :     2.858668
      pz      :     1.045637  p :     3.080939
      px      :     1.004783
      py      :     1.030519
      dz2     :     0.020785  d :     0.091009
      dxz     :     0.019547
      dyz     :     0.023761
      dx2y2   :     0.012604
      dxy     :     0.014311
 30 C s       :     2.857231  s :     2.857231
      pz      :     1.035858  p :     3.091588
      px      :     1.022138
      py      :     1.033592
      dz2     :     0.020757  d :     0.090383
      dxz     :     0.015351
      dyz     :     0.021009
      dx2y2   :     0.015988
      dxy     :     0.017278
 31 H s       :     0.902431  s :     0.902431
      pz      :     0.037194  p :     0.068772
      px      :     0.013451
      py      :     0.018127
 32 H s       :     0.901474  s :     0.901474
      pz      :     0.024463  p :     0.066576
      px      :     0.025548
      py      :     0.016564
 33 H s       :     0.901381  s :     0.901381
      pz      :     0.013397  p :     0.066809
      px      :     0.021282
      py      :     0.032130
 34 H s       :     0.900662  s :     0.900662
      pz      :     0.036373  p :     0.066572
      px      :     0.012958
      py      :     0.017240
 35 H s       :     0.898549  s :     0.898549
      pz      :     0.024499  p :     0.068037
      px      :     0.026644
      py      :     0.016894
 36 C s       :     2.838692  s :     2.838692
      pz      :     1.006034  p :     3.132011
      px      :     1.062025
      py      :     1.063952
      dz2     :     0.019326  d :     0.071351
      dxz     :     0.010962
      dyz     :     0.015914
      dx2y2   :     0.010514
      dxy     :     0.014635
 37 H s       :     0.911676  s :     0.911676
      pz      :     0.015677  p :     0.067124
      px      :     0.036795
      py      :     0.014652
 38 H s       :     0.903022  s :     0.903022
      pz      :     0.013042  p :     0.065215
      px      :     0.022460
      py      :     0.029712
 39 H s       :     0.906722  s :     0.906722
      pz      :     0.021717  p :     0.065751
      px      :     0.015655
      py      :     0.028378


                      *****************************
                      * MAYER POPULATION ANALYSIS *
                      *****************************

  NA   - Mulliken gross atomic population
  ZA   - Total nuclear charge
  QA   - Mulliken gross atomic charge
  VA   - Mayer's total valence
  BVA  - Mayer's bonded valence
  FA   - Mayer's free valence

  ATOM       NA         ZA         QA         VA         BVA        FA
  0 C      6.0078     6.0000    -0.0078     3.9673     3.9673    -0.0000
  1 H      0.9809     1.0000     0.0191     0.9925     0.9925     0.0000
  2 H      0.9734     1.0000     0.0266     0.9898     0.9898    -0.0000
  3 H      0.9511     1.0000     0.0489     0.9950     0.9950     0.0000
  4 C      6.1531     6.0000    -0.1531     4.1105     4.1105    -0.0000
  5 C      6.0184     6.0000    -0.0184     3.9645     3.9645     0.0000
  6 H      0.9724     1.0000     0.0276     0.9907     0.9907    -0.0000
  7 H      0.9703     1.0000     0.0297     0.9883     0.9883    -0.0000
  8 H      0.9714     1.0000     0.0286     0.9909     0.9909     0.0000
  9 H      0.9814     1.0000     0.0186     0.9818     0.9818    -0.0000
 10 C      5.9259     6.0000     0.0741     3.9061     3.9061     0.0000
 11 H      0.9766     1.0000     0.0234     0.9938     0.9938    -0.0000
 12 H      0.9805     1.0000     0.0195     0.9978     0.9978    -0.0000
 13 C      6.2520     6.0000    -0.2520     3.9634     3.9634     0.0000
 14 C      5.9840     6.0000     0.0160     3.8186     3.8186     0.0000
 15 C      6.0524     6.0000    -0.0524     3.9155     3.9155    -0.0000
 16 C      6.0108     6.0000    -0.0108     3.8536     3.8536     0.0000
 17 C      6.0143     6.0000    -0.0143     3.8442     3.8442     0.0000
 18 C      6.0149     6.0000    -0.0149     3.8728     3.8728    -0.0000
 19 C      6.0310     6.0000    -0.0310     3.8687     3.8687     0.0000
 20 H      0.9835     1.0000     0.0165     0.9953     0.9953    -0.0000
 21 H      0.9833     1.0000     0.0167     0.9841     0.9841    -0.0000
 22 H      0.9814     1.0000     0.0186     0.9842     0.9842    -0.0000
 23 H      0.9858     1.0000     0.0142     0.9841     0.9841    -0.0000
 24 H      0.9950     1.0000     0.0050     0.9979     0.9979    -0.0000
 25 C      5.9655     6.0000     0.0345     3.7848     3.7848    -0.0000
 26 C      6.0370     6.0000    -0.0370     3.8770     3.8770    -0.0000
 27 C      6.0161     6.0000    -0.0161     3.8699     3.8699     0.0000
 28 C      6.0149     6.0000    -0.0149     3.8450     3.8450     0.0000
 29 C      6.0114     6.0000    -0.0114     3.8636     3.8636     0.0000
 30 C      6.0578     6.0000    -0.0578     3.9178     3.9178     0.0000
 31 H      0.9965     1.0000     0.0035     0.9970     0.9970     0.0000
 32 H      0.9833     1.0000     0.0167     0.9838     0.9838     0.0000
 33 H      0.9806     1.0000     0.0194     0.9841     0.9841    -0.0000
 34 H      0.9813     1.0000     0.0187     0.9838     0.9838    -0.0000
 35 H      0.9788     1.0000     0.0212     0.9949     0.9949     0.0000
 36 C      5.9256     6.0000     0.0744     3.9211     3.9211    -0.0000
 37 H      0.9715     1.0000     0.0285     0.9959     0.9959     0.0000
 38 H      0.9635     1.0000     0.0365     0.9970     0.9970    -0.0000
 39 H      0.9647     1.0000     0.0353     1.0000     1.0000     0.0000

  Mayer bond orders larger than 0.100000
B(  0-C ,  1-H ) :   0.9673 B(  0-C ,  2-H ) :   0.9706 B(  0-C ,  3-H ) :   0.9683 
B(  0-C ,  4-C ) :   1.0634 B(  4-C ,  5-C ) :   1.0633 B(  4-C ,  9-H ) :   0.9350 
B(  4-C , 10-C ) :   0.9971 B(  5-C ,  6-H ) :   0.9714 B(  5-C ,  7-H ) :   0.9703 
B(  5-C ,  8-H ) :   0.9726 B( 10-C , 11-H ) :   0.9343 B( 10-C , 12-H ) :   0.9276 
B( 10-C , 13-C ) :   1.0643 B( 13-C , 14-C ) :   0.9195 B( 13-C , 25-C ) :   0.9130 
B( 13-C , 36-C ) :   1.0612 B( 14-C , 15-C ) :   1.4461 B( 14-C , 19-C ) :   1.3892 
B( 15-C , 16-C ) :   1.3697 B( 15-C , 24-H ) :   0.9798 B( 16-C , 17-C ) :   1.4136 
B( 16-C , 23-H ) :   0.9842 B( 17-C , 18-C ) :   1.3733 B( 17-C , 22-H ) :   0.9896 
B( 18-C , 19-C ) :   1.4201 B( 18-C , 21-H ) :   0.9878 B( 19-C , 20-H ) :   0.9892 
B( 25-C , 26-C ) :   1.3915 B( 25-C , 30-C ) :   1.4382 B( 26-C , 27-C ) :   1.4171 
B( 26-C , 35-H ) :   0.9886 B( 27-C , 28-C ) :   1.3727 B( 27-C , 34-H ) :   0.9882 
B( 28-C , 29-C ) :   1.4109 B( 28-C , 33-H ) :   0.9894 B( 29-C , 30-C ) :   1.3763 
B( 29-C , 32-H ) :   0.9852 B( 30-C , 31-H ) :   0.9802 B( 36-C , 37-H ) :   0.9521 
B( 36-C , 38-H ) :   0.9625 B( 36-C , 39-H ) :   0.9573 

-------
TIMINGS
-------

Total SCF time: 0 days 0 hours 4 min 35 sec 

Total time                  ....     275.789 sec
Sum of individual times     ....     275.488 sec  ( 99.9%)

Fock matrix formation       ....     270.539 sec  ( 98.1%)
  XC integration            ....       9.068 sec  (  3.4% of F)
    Basis function eval.    ....       2.718 sec  ( 30.0% of XC)
    Density eval.           ....       2.074 sec  ( 22.9% of XC)
    XC-Functional eval.     ....       1.725 sec  ( 19.0% of XC)
    XC-Potential eval.      ....       2.321 sec  ( 25.6% of XC)
Diagonalization             ....       0.022 sec  (  0.0%)
Density matrix formation    ....       0.018 sec  (  0.0%)
Population analysis         ....       0.019 sec  (  0.0%)
Initial guess               ....       0.020 sec  (  0.0%)
Orbital Transformation      ....       0.000 sec  (  0.0%)
Orbital Orthonormalization  ....       0.015 sec  (  0.0%)
DIIS solution               ....       0.006 sec  (  0.0%)
SOSCF solution              ....       0.079 sec  (  0.0%)
Grid generation             ....       4.785 sec  (  1.7%)


-------------------------------------------------------------------------------
                          DFT DISPERSION CORRECTION                            
                                                                               
                              DFTD3 V3.1  Rev 1                                
                              USING zero damping                               
-------------------------------------------------------------------------------
The omegaB97X-D3 functional is recognized. Fit by Chai et al.
Active option DFTDOPT                   ...         3   

molecular C6(AA) [au] = 15473.004897 


            DFT-D V3
 parameters
 s6 scaling factor         :     1.0000 
 rs6 scaling factor        :     1.2810 
 s8 scaling factor         :     1.0000 
 rs8 scaling factor        :     1.0940 
 Damping factor alpha6     :    14.0000 
 Damping factor alpha8     :    16.0000 
 ad hoc parameters k1-k3   :    16.0000     1.3333    -4.0000 

 Edisp/kcal,au: -12.927874096326  -0.020601876548 
 E6   /kcal   :  -6.220188571 
 E8   /kcal   :  -6.707685525 
 % E8         :  51.885449032 

-------------------------   ----------------
Dispersion correction           -0.020601877
-------------------------   ----------------


-------------------------   --------------------
FINAL SINGLE POINT ENERGY      -698.496058563836
-------------------------   --------------------

                                *** OPTIMIZATION RUN DONE ***

                            ***************************************
                            *     ORCA property calculations      *
                            ***************************************

                                    ---------------------
                                    Active property flags
                                    ---------------------
   (+) Dipole Moment


------------------------------------------------------------------------------
                       ORCA ELECTRIC PROPERTIES CALCULATION
------------------------------------------------------------------------------

Dipole Moment Calculation                       ... on
Quadrupole Moment Calculation                   ... off
Polarizability Calculation                      ... off
GBWName                                         ... 022277907.gbw
Electron density file                           ... 022277907.scfp
The origin for moment calculation is the CENTER OF MASS  = ( 0.005368,  0.008231 -0.008593)

-------------
DIPOLE MOMENT
-------------
                                X             Y             Z
Electronic contribution:     10.19337      11.37974      -0.51836
Nuclear contribution   :    -10.26656     -11.40836       0.57657
                        -----------------------------------------
Total Dipole Moment    :     -0.07320      -0.02863       0.05821
                        -----------------------------------------
Magnitude (a.u.)       :      0.09781
Magnitude (Debye)      :      0.24861



--------------------
Rotational spectrum 
--------------------
 
Rotational constants in cm-1:     0.018022     0.011656     0.008548 
Rotational constants in MHz :   540.295488   349.432242   256.260284 

 Dipole components along the rotational axes: 
x,y,z [a.u.] :     0.072032    -0.031183     0.058355 
x,y,z [Debye]:     0.183090    -0.079261     0.148327 

 

Timings for individual modules:

Sum of individual times         ...     7358.822 sec (= 122.647 min)
GTO integral calculation        ...        5.994 sec (=   0.100 min)   0.1 %
SCF iterations                  ...     4608.573 sec (=  76.810 min)  62.6 %
SCF Gradient evaluation         ...     2739.873 sec (=  45.665 min)  37.2 %
Geometry relaxation             ...        4.382 sec (=   0.073 min)   0.1 %
                             ****ORCA TERMINATED NORMALLY****
TOTAL RUN TIME: 0 days 2 hours 2 minutes 41 seconds 876 msec
