
                                 *****************
                                 * O   R   C   A *
                                 *****************

           --- An Ab Initio, DFT and Semiempirical electronic structure package ---

                  #######################################################
                  #                        -***-                        #
                  #          Department of theory and spectroscopy      #
                  #               Directorship: Frank Neese             #
                  #        Max Planck Institute fuer Kohlenforschung    #
                  #                Kaiser Wilhelm Platz 1               #
                  #                 D-45470 Muelheim/Ruhr               #
                  #                      Germany                        #
                  #                                                     #
                  #                  All rights reserved                #
                  #                        -***-                        #
                  #######################################################


                         Program Version 4.2.0 -  RELEASE  -


 With contributions from (in alphabetic order):
   Daniel Aravena         : Magnetic Suceptibility
   Michael Atanasov       : Ab Initio Ligand Field Theory (pilot matlab implementation)
   Alexander A. Auer      : GIAO ZORA, VPT2
   Ute Becker             : Parallelization
   Giovanni Bistoni       : ED, misc. LED, open-shell LED, HFLED
   Martin Brehm           : Molecular dynamics
   Dmytro Bykov           : SCF Hessian
   Vijay G. Chilkuri      : MRCI spin determinant printing, contributions to CSF-ICE
   Dipayan Datta          : RHF DLPNO-CCSD density
   Achintya Kumar Dutta   : EOM-CC, STEOM-CC
   Dmitry Ganyushin       : Spin-Orbit,Spin-Spin,Magnetic field MRCI
   Miquel Garcia          : C-PCM Hessian, Gaussian charge scheme
   Yang Guo               : DLPNO-NEVPT2, CIM, IAO-localization
   Andreas Hansen         : Spin unrestricted coupled pair/coupled cluster methods
   Benjamin Helmich-Paris : CASSCF linear response (MC-RPA)
   Lee Huntington         : MR-EOM, pCC
   Robert Izsak           : Overlap fitted RIJCOSX, COSX-SCS-MP3, EOM
   Christian Kollmar      : KDIIS, OOCD, Brueckner-CCSD(T), CCSD density
   Simone Kossmann        : Meta GGA functionals, TD-DFT gradient, OOMP2, MP2 Hessian
   Martin Krupicka        : AUTO-CI
   Lucas Lang             : DCDCAS
   Dagmar Lenk            : GEPOL surface, SMD
   Dimitrios Liakos       : Extrapolation schemes; Compound Job, initial MDCI parallelization
   Dimitrios Manganas     : Further ROCIS development; embedding schemes
   Dimitrios Pantazis     : SARC Basis sets
   Taras Petrenko         : DFT Hessian,TD-DFT gradient, ASA, ECA, R-Raman, ABS, FL, XAS/XES, NRVS
   Peter Pinski           : DLPNO-MP2, DLPNO-MP2 Gradient
   Christoph Reimann      : Effective Core Potentials
   Marius Retegan         : Local ZFS, SOC
   Christoph Riplinger    : Optimizer, TS searches, QM/MM, DLPNO-CCSD(T), (RO)-DLPNO pert. Triples
   Tobias Risthaus        : Range-separated hybrids, TD-DFT gradient, RPA, STAB
   Michael Roemelt        : Original ROCIS implementation
   Masaaki Saitow         : Open-shell DLPNO-CCSD energy and density
   Barbara Sandhoefer     : DKH picture change effects
   Avijit Sen             : IP-ROCIS
   Kantharuban Sivalingam : CASSCF convergence, NEVPT2, FIC-MRCI
   Bernardo de Souza      : ESD, SOC TD-DFT
   Georgi Stoychev        : AutoAux, RI-MP2 NMR
   Willem Van den Heuvel  : Paramagnetic NMR
   Boris Wezisla          : Elementary symmetry handling
   Frank Wennmohs         : Technical directorship


 We gratefully acknowledge several colleagues who have allowed us to
 interface, adapt or use parts of their codes:
   Stefan Grimme, W. Hujo, H. Kruse,             : VdW corrections, initial TS optimization,
                  C. Bannwarth                     DFT functionals, gCP, sTDA/sTD-DF
   Ed Valeev, F. Pavosevic, A. Kumar             : LibInt (2-el integral package), F12 methods
   Garnet Chan, S. Sharma, J. Yang, R. Olivares  : DMRG
   Ulf Ekstrom                                   : XCFun DFT Library
   Mihaly Kallay                                 : mrcc  (arbitrary order and MRCC methods)
   Andreas Klamt, Michael Diedenhofen            : otool_cosmo (COSMO solvation model)
   Jiri Pittner, Ondrej Demel                    : Mk-CCSD
   Frank Weinhold                                : gennbo (NPA and NBO analysis)
   Christopher J. Cramer and Donald G. Truhlar   : smd solvation model
   Lars Goerigk                                  : TD-DFT with DH, B97 family of functionals
   V. Asgeirsson, H. Jonsson                     : NEB implementation
   FAccTs GmbH                                   : IRC, NEB, NEB-TS, Multilevel, MM, QM/MM, CI optimization
   S Lehtola, MJT Oliveira, MAL Marques          : LibXC Library


 Your calculation uses the libint2 library for the computation of 2-el integrals
 For citations please refer to: http://libint.valeyev.net

 Your ORCA version has been built with support for libXC version: 4.2.3
 For citations please refer to: https://tddft.org/programs/libxc/

 This ORCA versions uses:
   CBLAS   interface :  Fast vector & matrix operations
   LAPACKE interface :  Fast linear algebra routines
   SCALAPACK package :  Parallel linear algebra routines


Your calculation utilizes the atom-pairwise dispersion correction
with the zero-damping scheme (D30)
Cite in your paper:
S.Grimme, J.Antony, S.Ehrlich and H.Krieg, J.Chem.Phys., 132, (2010), 154104 
   

XCFun DFT library Copyright 2009-2010 Ulf Ekstrom and contributors.
See http://admol.org/xcfun for more information. This is free soft-
ware; see the source code for copying conditions. There is ABSOLUTELY
NO WARRANTY; not even for MERCHANTABILITY or FITNESS FOR A PARTICULAR
PURPOSE. For details see the documentation. Scientific users of this 
library should cite U. Ekstrom, L. Visscher, R. Bast, A. J. Thorvald-
sen and K. Ruud; J.Chem.Theor.Comp. 2010, DOI: 10.1021/ct100117s
XCFun Version 0.99 
----- Orbital basis set information -----
Your calculation utilizes the basis: def2-SVP
   F. Weigend and R. Ahlrichs, Phys. Chem. Chem. Phys. 7, 3297 (2005).

================================================================================
                                        WARNINGS
                       Please study these warnings very carefully!
================================================================================


WARNING: Geometry Optimization
  ===> : Switching off AutoStart
         For restart on a previous wavefunction, please use MOREAD

INFO   : the flag for use of LIBINT has been found!

================================================================================
                                       INPUT FILE
================================================================================
NAME = 059200416.inp
|  1> # ORCA input file
|  2> # -44.85230415
|  3> ! wB97X-D3 def2-SVP Opt
|  4> * xyz 0 1
|  5>    C       -3.42500        -1.62020        -0.11640
|  6>    C       -2.97220        -1.05690         1.06300
|  7>    C       -1.86010        -0.23160         1.06440
|  8>    C       -1.18620         0.04340        -0.11980
|  9>    C       -1.64840        -0.52800        -1.29970
| 10>    C       -2.75850        -1.35160        -1.29960
| 11>    H       -3.10340        -1.78580        -2.22650
| 12>    H       -1.13270        -0.30870        -2.22170
| 13>    C        0.05600         0.91740        -0.17870
| 14>    C        1.29170         0.05760        -0.00370
| 15>    N        2.27860         0.32060        -0.85170
| 16>    C        3.41030        -0.35380        -0.74930
| 17>    C        3.62320        -1.33090         0.20740
| 18>    C        2.59270        -1.61030         1.09410
| 19>    C        1.40630        -0.90700         0.99260
| 20>    H        0.58230        -1.10780         1.65830
| 21>    H        2.71360        -2.36910         1.85360
| 22>    H        4.56200        -1.85930         0.25640
| 23>    H        4.17310        -0.09230        -1.47130
| 24>    O        0.09680         1.57810        -1.42670
| 25>    H        1.01710         1.52040        -1.73200
| 26>    C        0.08140         2.01950         0.93090
| 27>    N       -1.02970         2.93690         0.86060
| 28>    H       -1.05680         3.34330        -0.07010
| 29>    H       -1.90430         2.43770         0.99400
| 30>    H        0.11610         1.56460         1.92270
| 31>    H        1.00060         2.59600         0.78980
| 32>    H       -1.53210         0.19550         2.00050
| 33>    H       -3.48650        -1.25780         1.99180
| 34>    H       -4.29290        -2.26300        -0.11300
| 35> *
| 36> 
| 37>                          ****END OF INPUT****
================================================================================

                       *****************************
                       * Geometry Optimization Run *
                       *****************************

Geometry optimization settings:
Update method            Update   .... BFGS
Choice of coordinates    CoordSys .... Z-matrix Internals
Initial Hessian          InHess   .... Almoef's Model

Convergence Tolerances:
Energy Change            TolE     ....  5.0000e-06 Eh
Max. Gradient            TolMAXG  ....  3.0000e-04 Eh/bohr
RMS Gradient             TolRMSG  ....  1.0000e-04 Eh/bohr
Max. Displacement        TolMAXD  ....  4.0000e-03 bohr
RMS Displacement         TolRMSD  ....  2.0000e-03 bohr
Strict Convergence                ....  False
------------------------------------------------------------------------------
                        ORCA OPTIMIZATION COORDINATE SETUP
------------------------------------------------------------------------------

The optimization will be done in new redundant internal coordinates
Making redundant internal coordinates   ...  (new redundants) done
Evaluating the initial hessian          ...  (Almloef) done
Evaluating the coordinates              ...  done
Calculating the B-matrix                .... done
Calculating the G-matrix                .... done
Diagonalizing the G-matrix              .... done
Small eigenvalue found = 1.056e-02
Small eigenvalue found = 1.594e-02
Small eigenvalue found = 2.237e-02
The first mode is                       ....   71
The number of degrees of freedom        ....   84

    -----------------------------------------------------------------
                    Redundant Internal Coordinates


    -----------------------------------------------------------------
         Definition                    Initial Value    Approx d2E/dq
    -----------------------------------------------------------------
      1. B(C   1,C   0)                  1.3832         0.640535   
      2. B(C   2,C   1)                  1.3849         0.636663   
      3. B(C   3,C   2)                  1.3900         0.624800   
      4. B(C   4,C   3)                  1.3901         0.624639   
      5. B(C   5,C   4)                  1.3823         0.642820   
      6. B(C   5,C   0)                  1.3843         0.637980   
      7. B(H   6,C   5)                  1.0801         0.373429   
      8. B(H   7,C   4)                  1.0789         0.375025   
      9. B(C   8,C   3)                  1.5200         0.387551   
     10. B(C   9,C   8)                  1.5155         0.393968   
     11. B(N  10,C   9)                  1.3275         0.704040   
     12. B(C  11,N  10)                  1.3214         0.720035   
     13. B(C  12,C  11)                  1.3840         0.638831   
     14. B(C  13,C  12)                  1.3879         0.629664   
     15. B(C  14,C   9)                  1.3915         0.621422   
     16. B(C  14,C  13)                  1.3829         0.641251   
     17. B(H  15,C  14)                  1.0782         0.376093   
     18. B(H  16,C  13)                  1.0804         0.373045   
     19. B(H  17,C  12)                  1.0784         0.375773   
     20. B(H  18,C  11)                  1.0824         0.370333   
     21. B(O  19,C   8)                  1.4127         0.514843   
     22. B(H  20,O  19)                  0.9713         0.498752   
     23. B(C  21,C   8)                  1.5641         0.329561   
     24. B(N  22,C  21)                  1.4426         0.461263   
     25. B(H  23,N  22)                  1.0159         0.423396   
     26. B(H  24,N  22)                  1.0158         0.423531   
     27. B(H  25,C  21)                  1.0917         0.357860   
     28. B(H  26,C  21)                  1.0942         0.354636   
     29. B(H  27,C   2)                  1.0799         0.373650   
     30. B(H  28,C   1)                  1.0805         0.372855   
     31. B(H  29,C   0)                  1.0800         0.373541   
     32. A(C   1,C   0,H  29)          120.1819         0.357077   
     33. A(C   5,C   0,H  29)          120.3363         0.356834   
     34. A(C   1,C   0,C   5)          119.4817         0.438877   
     35. A(C   0,C   1,C   2)          120.4257         0.438713   
     36. A(C   0,C   1,H  28)          120.0920         0.356965   
     37. A(C   2,C   1,H  28)          119.4822         0.356598   
     38. A(C   1,C   2,H  27)          118.7151         0.356727   
     39. A(C   1,C   2,C   3)          120.4221         0.436750   
     40. A(C   3,C   2,H  27)          120.8622         0.355589   
     41. A(C   2,C   3,C   8)          122.8870         0.399794   
     42. A(C   4,C   3,C   8)          118.3723         0.399776   
     43. A(C   2,C   3,C   4)          118.7251         0.435253   
     44. A(C   5,C   4,H   7)          120.3331         0.357534   
     45. A(C   3,C   4,C   5)          120.7902         0.437488   
     46. A(C   3,C   4,H   7)          118.8726         0.355796   
     47. A(C   0,C   5,H   6)          120.1152         0.356816   
     48. A(C   0,C   5,C   4)          120.1549         0.439159   
     49. A(C   4,C   5,H   6)          119.7298         0.357275   
     50. A(C   9,C   8,O  19)          110.1082         0.385123   
     51. A(C   3,C   8,O  19)          109.0720         0.384024   
     52. A(C   3,C   8,C   9)          109.6123         0.368990   
     53. A(O  19,C   8,C  21)          107.2593         0.373397   
     54. A(C   9,C   8,C  21)          107.7334         0.358904   
     55. A(C   3,C   8,C  21)          113.0126         0.357903   
     56. A(C   8,C   9,N  10)          114.8347         0.406860   
     57. A(N  10,C   9,C  14)          122.2417         0.441399   
     58. A(C   8,C   9,C  14)          122.8957         0.400569   
     59. A(C   9,N  10,C  11)          119.0842         0.450346   
     60. A(C  12,C  11,H  18)          121.5525         0.356393   
     61. A(N  10,C  11,H  18)          115.3778         0.361473   
     62. A(N  10,C  11,C  12)          123.0697         0.445417   
     63. A(C  13,C  12,H  17)          121.2456         0.356401   
     64. A(C  11,C  12,H  17)          120.7484         0.357277   
     65. A(C  11,C  12,C  13)          118.0056         0.437629   
     66. A(C  14,C  13,H  16)          120.3168         0.357064   
     67. A(C  12,C  13,H  16)          120.4929         0.355960   
     68. A(C  12,C  13,C  14)          119.1902         0.437928   
     69. A(C  13,C  14,H  15)          121.0388         0.357558   
     70. A(C   9,C  14,H  15)          120.5472         0.355656   
     71. A(C   9,C  14,C  13)          118.4083         0.436889   
     72. A(C   8,O  19,H  20)          106.0961         0.356008   
     73. A(H  25,C  21,H  26)          108.0594         0.289858   
     74. A(N  22,C  21,H  26)          107.8000         0.332945   
     75. A(C   8,C  21,H  26)          107.0622         0.316946   
     76. A(N  22,C  21,H  25)          109.4960         0.333445   
     77. A(C   8,C  21,H  25)          110.5731         0.317413   
     78. A(C   8,C  21,N  22)          113.6412         0.366410   
     79. A(H  23,N  22,H  24)          107.0928         0.301173   
     80. A(C  21,N  22,H  24)          110.1337         0.339987   
     81. A(C  21,N  22,H  23)          108.6376         0.339969   
     82. D(C   2,C   1,C   0,C   5)     -0.0853         0.028509   
     83. D(H  28,C   1,C   0,H  29)     -0.0566         0.028509   
     84. D(H  28,C   1,C   0,C   5)    179.8381         0.028509   
     85. D(C   2,C   1,C   0,H  29)   -179.9800         0.028509   
     86. D(H  27,C   2,C   1,C   0)    179.8419         0.028143   
     87. D(C   3,C   2,C   1,C   0)      0.1276         0.028143   
     88. D(H  27,C   2,C   1,H  28)     -0.0820         0.028143   
     89. D(C   3,C   2,C   1,H  28)   -179.7963         0.028143   
     90. D(C   8,C   3,C   2,H  27)      1.5879         0.027038   
     91. D(C   8,C   3,C   2,C   1)   -178.7040         0.027038   
     92. D(C   4,C   3,C   2,H  27)   -179.8715         0.027038   
     93. D(C   4,C   3,C   2,C   1)     -0.1634         0.027038   
     94. D(C   5,C   4,C   3,C   8)    178.7684         0.027024   
     95. D(C   5,C   4,C   3,C   2)      0.1613         0.027024   
     96. D(H   7,C   4,C   3,C   2)    179.4286         0.027024   
     97. D(H   7,C   4,C   3,C   8)     -1.9642         0.027024   
     98. D(H   6,C   5,C   4,H   7)      0.6861         0.028727   
     99. D(C   0,C   5,C   4,H   7)   -179.3790         0.028727   
    100. D(C   0,C   5,C   4,C   3)     -0.1223         0.028727   
    101. D(H   6,C   5,C   0,H  29)     -0.0885         0.028267   
    102. D(H   6,C   5,C   0,C   1)   -179.9830         0.028267   
    103. D(H   6,C   5,C   4,C   3)    179.9428         0.028727   
    104. D(C   4,C   5,C   0,H  29)    179.9769         0.028267   
    105. D(C   4,C   5,C   0,C   1)      0.0824         0.028267   
    106. D(C  21,C   8,C   3,C   4)    151.4554         0.011182   
    107. D(C  21,C   8,C   3,C   2)    -29.9991         0.011182   
    108. D(O  19,C   8,C   3,C   4)     32.2517         0.011182   
    109. D(O  19,C   8,C   3,C   2)   -149.2028         0.011182   
    110. D(C   9,C   8,C   3,C   4)    -88.3693         0.011182   
    111. D(C   9,C   8,C   3,C   2)     90.1762         0.011182   
    112. D(N  10,C   9,C   8,C   3)    135.0727         0.011535   
    113. D(C  14,C   9,C   8,C  21)     76.5334         0.011535   
    114. D(C  14,C   9,C   8,O  19)   -166.8004         0.011535   
    115. D(C  14,C   9,C   8,C   3)    -46.8103         0.011535   
    116. D(N  10,C   9,C   8,C  21)   -101.5837         0.011535   
    117. D(N  10,C   9,C   8,O  19)     15.0826         0.011535   
    118. D(C  11,N  10,C   9,C  14)     -0.0349         0.037160   
    119. D(C  11,N  10,C   9,C   8)    178.0958         0.037160   
    120. D(H  18,C  11,N  10,C   9)    179.9101         0.039041   
    121. D(C  12,C  11,N  10,C   9)     -0.0344         0.039041   
    122. D(H  17,C  12,C  11,H  18)     -0.0077         0.028348   
    123. D(H  17,C  12,C  11,N  10)    179.9335         0.028348   
    124. D(C  13,C  12,C  11,H  18)   -179.7887         0.028348   
    125. D(C  13,C  12,C  11,N  10)      0.1525         0.028348   
    126. D(H  16,C  13,C  12,H  17)     -0.1057         0.027488   
    127. D(H  16,C  13,C  12,C  11)    179.6741         0.027488   
    128. D(C  14,C  13,C  12,H  17)   -179.9795         0.027488   
    129. D(C  14,C  13,C  12,C  11)     -0.1997         0.027488   
    130. D(H  15,C  14,C  13,H  16)     -0.5995         0.028577   
    131. D(C   9,C  14,C  13,H  16)   -179.7370         0.028577   
    132. D(C   9,C  14,C  13,C  12)      0.1370         0.028577   
    133. D(H  15,C  14,C   9,N  10)   -179.1599         0.026729   
    134. D(H  15,C  14,C   9,C   8)      2.8605         0.026729   
    135. D(H  15,C  14,C  13,C  12)    179.2745         0.028577   
    136. D(C  13,C  14,C   9,N  10)     -0.0180         0.026729   
    137. D(C  13,C  14,C   9,C   8)   -177.9976         0.026729   
    138. D(H  20,O  19,C   8,C  21)    100.4986         0.020998   
    139. D(H  20,O  19,C   8,C   9)    -16.4634         0.020998   
    140. D(H  20,O  19,C   8,C   3)   -136.7799         0.020998   
    141. D(H  25,C  21,C   8,C   3)     63.3735         0.008847   
    142. D(N  22,C  21,C   8,O  19)     60.0159         0.008847   
    143. D(N  22,C  21,C   8,C   9)    178.5260         0.008847   
    144. D(N  22,C  21,C   8,C   3)    -60.2296         0.008847   
    145. D(H  26,C  21,C   8,O  19)    -58.8930         0.008847   
    146. D(H  26,C  21,C   8,C   9)     59.6172         0.008847   
    147. D(H  26,C  21,C   8,C   3)   -179.1385         0.008847   
    148. D(H  25,C  21,C   8,O  19)   -176.3810         0.008847   
    149. D(H  25,C  21,C   8,C   9)    -57.8709         0.008847   
    150. D(H  24,N  22,C  21,H  26)   -179.6141         0.018164   
    151. D(H  24,N  22,C  21,H  25)    -62.2875         0.018164   
    152. D(H  24,N  22,C  21,C   8)     61.9002         0.018164   
    153. D(H  23,N  22,C  21,H  26)     63.3838         0.018164   
    154. D(H  23,N  22,C  21,H  25)   -179.2896         0.018164   
    155. D(H  23,N  22,C  21,C   8)    -55.1019         0.018164   
    -----------------------------------------------------------------

Number of atoms                         .... 30
Number of degrees of freedom            .... 155

         *************************************************************
         *                GEOMETRY OPTIMIZATION CYCLE   1            *
         *************************************************************
---------------------------------
CARTESIAN COORDINATES (ANGSTROEM)
---------------------------------
  C     -3.425000   -1.620200   -0.116400
  C     -2.972200   -1.056900    1.063000
  C     -1.860100   -0.231600    1.064400
  C     -1.186200    0.043400   -0.119800
  C     -1.648400   -0.528000   -1.299700
  C     -2.758500   -1.351600   -1.299600
  H     -3.103400   -1.785800   -2.226500
  H     -1.132700   -0.308700   -2.221700
  C      0.056000    0.917400   -0.178700
  C      1.291700    0.057600   -0.003700
  N      2.278600    0.320600   -0.851700
  C      3.410300   -0.353800   -0.749300
  C      3.623200   -1.330900    0.207400
  C      2.592700   -1.610300    1.094100
  C      1.406300   -0.907000    0.992600
  H      0.582300   -1.107800    1.658300
  H      2.713600   -2.369100    1.853600
  H      4.562000   -1.859300    0.256400
  H      4.173100   -0.092300   -1.471300
  O      0.096800    1.578100   -1.426700
  H      1.017100    1.520400   -1.732000
  C      0.081400    2.019500    0.930900
  N     -1.029700    2.936900    0.860600
  H     -1.056800    3.343300   -0.070100
  H     -1.904300    2.437700    0.994000
  H      0.116100    1.564600    1.922700
  H      1.000600    2.596000    0.789800
  H     -1.532100    0.195500    2.000500
  H     -3.486500   -1.257800    1.991800
  H     -4.292900   -2.263000   -0.113000

----------------------------
CARTESIAN COORDINATES (A.U.)
----------------------------
  NO LB      ZA    FRAG     MASS         X           Y           Z
   0 C     6.0000    0    12.011   -6.472312   -3.061734   -0.219964
   1 C     6.0000    0    12.011   -5.616644   -1.997252    2.008779
   2 C     6.0000    0    12.011   -3.515080   -0.437661    2.011424
   3 C     6.0000    0    12.011   -2.241593    0.082014   -0.226389
   4 C     6.0000    0    12.011   -3.115025   -0.997775   -2.456077
   5 C     6.0000    0    12.011   -5.212810   -2.554154   -2.455888
   6 H     1.0000    0     1.008   -5.864576   -3.374673   -4.207475
   7 H     1.0000    0     1.008   -2.140493   -0.583358   -4.198405
   8 C     6.0000    0    12.011    0.105825    1.733635   -0.337694
   9 C     6.0000    0    12.011    2.440959    0.108848   -0.006992
  10 N     7.0000    0    14.007    4.305930    0.605846   -1.609480
  11 C     6.0000    0    12.011    6.444533   -0.668585   -1.415972
  12 C     6.0000    0    12.011    6.846856   -2.515037    0.391929
  13 C     6.0000    0    12.011    4.899493   -3.043026    2.067549
  14 C     6.0000    0    12.011    2.657522   -1.713982    1.875742
  15 H     1.0000    0     1.008    1.100388   -2.093439    3.133733
  16 H     1.0000    0     1.008    5.127961   -4.476950    3.502796
  17 H     1.0000    0     1.008    8.620931   -3.513568    0.484526
  18 H     1.0000    0     1.008    7.886016   -0.174422   -2.780354
  19 O     8.0000    0    15.999    0.182925    2.982177   -2.696072
  20 H     1.0000    0     1.008    1.922040    2.873140   -3.273006
  21 C     6.0000    0    12.011    0.153824    3.816302    1.759146
  22 N     7.0000    0    14.007   -1.945851    5.549937    1.626298
  23 H     1.0000    0     1.008   -1.997063    6.317921   -0.132470
  24 H     1.0000    0     1.008   -3.598605    4.606585    1.878388
  25 H     1.0000    0     1.008    0.219397    2.956666    3.633376
  26 H     1.0000    0     1.008    1.890860    4.905729    1.492506
  27 H     1.0000    0     1.008   -2.895249    0.369441    3.780397
  28 H     1.0000    0     1.008   -6.588530   -2.376898    3.763957
  29 H     1.0000    0     1.008   -8.112405   -4.276450   -0.213539

--------------------------------
INTERNAL COORDINATES (ANGSTROEM)
--------------------------------
 C      0   0   0     0.000000000000     0.00000000     0.00000000
 C      1   0   0     1.383227779507     0.00000000     0.00000000
 C      2   1   0     1.384878500086   120.42573537     0.00000000
 C      3   2   1     1.389998507193   120.42206803     0.12762762
 C      4   3   2     1.390068634996   118.72506587   359.83663188
 C      5   4   3     1.382258651628   120.79022795     0.16125433
 H      6   5   4     1.080106133674   119.72982811   179.94280952
 H      5   4   3     1.078945309087   118.87261916   179.42862711
 C      4   3   2     1.520001990130   122.88703998   181.29602874
 C      9   4   3     1.515531434844   109.61225050    90.17616999
 N     10   9   4     1.327495615812   114.83468694   135.07267344
 C     11  10   9     1.321380342672   119.08424455   178.09583303
 C     12  11  10     1.383952929113   123.06968091   359.96556266
 C     13  12  11     1.387887423389   118.00563805     0.15250167
 C     14  13  12     1.382923750610   119.19019814   359.80032340
 H     15  14  13     1.078171196981   121.03882790   179.27450619
 H     14  13  12     1.080386273515   120.49287038   179.67410132
 H     13  12  11     1.078402985901   120.74841451   179.93347886
 H     12  11  10     1.082372435902   115.37775405   179.91006297
 O      9   4   3     1.412690033234   109.07200491   210.79719605
 H     20   9   4     0.971333861244   106.09612518   223.22009254
 C      9   4   3     1.564123310356   113.01256971   330.00090121
 N     22   9   4     1.442604609725   113.64122680   299.77037580
 H     23  22   9     1.015922172216   108.63761932   304.89812242
 H     23  22   9     1.015835301611   110.13365644    61.90019793
 H     22   9   4     1.091698374094   110.57311239    63.37346709
 H     22   9   4     1.094161825326   107.06224361   180.86152020
 H      3   2   1     1.079945193054   118.71511833   179.84194137
 H      2   1   3     1.080525214884   120.09204652   179.92344527
 H      1   2   3     1.080024911750   120.18192351   180.02000446

---------------------------
INTERNAL COORDINATES (A.U.)
---------------------------
 C      0   0   0     0.000000000000     0.00000000     0.00000000
 C      1   0   0     2.613921684100     0.00000000     0.00000000
 C      2   1   0     2.617041093918   120.42573537     0.00000000
 C      3   2   1     2.626716505155   120.42206803     0.12762762
 C      4   3   2     2.626849027496   118.72506587   359.83663188
 C      5   4   3     2.612090297820   120.79022795     0.16125433
 H      6   5   4     2.041104788212   119.72982811   179.94280952
 H      5   4   3     2.038911147653   118.87261916   179.42862711
 C      4   3   2     2.872387484361   122.88703998   181.29602874
 C      9   4   3     2.863939359204   109.61225050    90.17616999
 N     10   9   4     2.508603157866   114.83468694   135.07267344
 C     11  10   9     2.497046966397   119.08424455   178.09583303
 C     12  11  10     2.615292018261   123.06968091   359.96556266
 C     13  12  11     2.622727134918   118.00563805     0.15250167
 C     14  13  12     2.613347152747   119.19019814   359.80032340
 H     15  14  13     2.037448287777   121.03882790   179.27450619
 H     14  13  12     2.041634175791   120.49287038   179.67410132
 H     13  12  11     2.037886305356   120.74841451   179.93347886
 H     12  11  10     2.045387478760   115.37775405   179.91006297
 O      9   4   3     2.669597274933   109.07200491   210.79719605
 H     20   9   4     1.835554982356   106.09612518   223.22009254
 C      9   4   3     2.955764696256   113.01256971   330.00090121
 N     22   9   4     2.726127631913   113.64122680   299.77037580
 H     23  22   9     1.919814678867   108.63761932   304.89812242
 H     23  22   9     1.919650517215   110.13365644    61.90019793
 H     22   9   4     2.063010947885   110.57311239    63.37346709
 H     22   9   4     2.067666196057   107.06224361   180.86152020
 H      3   2   1     2.040800654516   118.71511833   179.84194137
 H      2   1   3     2.041896736927   120.09204652   179.92344527
 H      1   2   3     2.040951301019   120.18192351   180.02000446

---------------------
BASIS SET INFORMATION
---------------------
There are 4 groups of distinct atoms

 Group   1 Type C   : 7s4p1d contracted to 3s2p1d pattern {511/31/1}
 Group   2 Type H   : 4s1p contracted to 2s1p pattern {31/1}
 Group   3 Type N   : 7s4p1d contracted to 3s2p1d pattern {511/31/1}
 Group   4 Type O   : 7s4p1d contracted to 3s2p1d pattern {511/31/1}

Atom   0C    basis set group =>   1
Atom   1C    basis set group =>   1
Atom   2C    basis set group =>   1
Atom   3C    basis set group =>   1
Atom   4C    basis set group =>   1
Atom   5C    basis set group =>   1
Atom   6H    basis set group =>   2
Atom   7H    basis set group =>   2
Atom   8C    basis set group =>   1
Atom   9C    basis set group =>   1
Atom  10N    basis set group =>   3
Atom  11C    basis set group =>   1
Atom  12C    basis set group =>   1
Atom  13C    basis set group =>   1
Atom  14C    basis set group =>   1
Atom  15H    basis set group =>   2
Atom  16H    basis set group =>   2
Atom  17H    basis set group =>   2
Atom  18H    basis set group =>   2
Atom  19O    basis set group =>   4
Atom  20H    basis set group =>   2
Atom  21C    basis set group =>   1
Atom  22N    basis set group =>   3
Atom  23H    basis set group =>   2
Atom  24H    basis set group =>   2
Atom  25H    basis set group =>   2
Atom  26H    basis set group =>   2
Atom  27H    basis set group =>   2
Atom  28H    basis set group =>   2
Atom  29H    basis set group =>   2
------------------------------------------------------------------------------
                           ORCA GTO INTEGRAL CALCULATION
------------------------------------------------------------------------------

                         BASIS SET STATISTICS AND STARTUP INFO

 # of primitive gaussian shells          ...  262
 # of primitive gaussian functions       ...  482
 # of contracted shells                  ...  138
 # of contracted basis functions         ...  294
 Highest angular momentum                ...    2
 Maximum contraction depth               ...    5
 Integral package used                   ... LIBINT
 Integral threshhold            Thresh   ...  2.500e-11
 Primitive cut-off              TCut     ...  2.500e-12


------------------------------ INTEGRAL EVALUATION ----------------------------


 * One electron integrals 
 Pre-screening matrix                    ... done
 Shell pair data                         ... done (   0.003 sec)

-------------------------------------------------------------------------------
                                 ORCA SCF
-------------------------------------------------------------------------------

------------
SCF SETTINGS
------------
Hamiltonian:
 Density Functional     Method          .... DFT(GTOs)
 Exchange Functional    Exchange        .... WB97X-D3
 Correlation Functional Correlation     .... WB97X-D3
 Gradients option       PostSCFGGA      .... off
 Hybrid DFT is turned on
   Fraction HF Exchange ScalHFX         ....  0.195728
   Scaling of DF-GGA-X  ScalDFX         ....  0.000000
   Scaling of DF-GGA-C  ScalDFC         ....  1.000000
   Scaling of DF-LDA-C  ScalLDAC        ....  1.000000
   Perturbative correction              ....  0.000000
   Density functional embedding theory  .... OFF
 Long-range corrected/Screened/Range-Separated Hybrid DFT is turned on
   Amount of maximum screened exact exchange              ....  0.804272
   Range separation parameter mu (erf(mu*r12)/r12)        ....  0.250000


General Settings:
 Integral files         IntName         .... 059200416
 Hartree-Fock type      HFTyp           .... RHF
 Total Charge           Charge          ....    0
 Multiplicity           Mult            ....    1
 Number of Electrons    NEL             ....  114
 Basis Dimension        Dim             ....  294
 Nuclear Repulsion      ENuc            ....   1076.0702557428 Eh

Convergence Acceleration:
 DIIS                   CNVDIIS         .... on
   Start iteration      DIISMaxIt       ....    12
   Startup error        DIISStart       ....  0.200000
   # of expansion vecs  DIISMaxEq       ....     5
   Bias factor          DIISBfac        ....   1.050
   Max. coefficient     DIISMaxC        ....  10.000
 Newton-Raphson         CNVNR           .... off
 SOSCF                  CNVSOSCF        .... on
   Start iteration      SOSCFMaxIt      ....   150
   Startup grad/error   SOSCFStart      ....  0.003300
 Level Shifting         CNVShift        .... on
   Level shift para.    LevelShift      ....    0.2500
   Turn off err/grad.   ShiftErr        ....    0.0010
 Zerner damping         CNVZerner       .... off
 Static damping         CNVDamp         .... on
   Fraction old density DampFac         ....    0.7000
   Max. Damping (<1)    DampMax         ....    0.9800
   Min. Damping (>=0)   DampMin         ....    0.0000
   Turn off err/grad.   DampErr         ....    0.1000
 Fernandez-Rico         CNVRico         .... off

SCF Procedure:
 Maximum # iterations   MaxIter         ....   125
 SCF integral mode      SCFMode         .... Direct
   Integral package                     .... LIBINT
 Reset frequency        DirectResetFreq ....    20
 Integral Threshold     Thresh          ....  2.500e-11 Eh
 Primitive CutOff       TCut            ....  2.500e-12 Eh

Convergence Tolerance:
 Convergence Check Mode ConvCheckMode   .... Total+1el-Energy
 Convergence forced     ConvForced      .... 0
 Energy Change          TolE            ....  1.000e-08 Eh
 1-El. energy change                    ....  1.000e-05 Eh
 Orbital Gradient       TolG            ....  1.000e-05
 Orbital Rotation angle TolX            ....  1.000e-05
 DIIS Error             TolErr          ....  5.000e-07


Diagonalization of the overlap matrix:
Smallest eigenvalue                        ... 2.548e-04
Time for diagonalization                   ...    0.012 sec
Threshold for overlap eigenvalues          ... 1.000e-08
Number of eigenvalues below threshold      ... 0
Time for construction of square roots      ...    0.005 sec
Total time needed                          ...    0.017 sec

-------------------
DFT GRID GENERATION
-------------------

General Integration Accuracy     IntAcc      ...  4.340
Radial Grid Type                 RadialGrid  ... Gauss-Chebyshev
Angular Grid (max. acc.)         AngularGrid ... Lebedev-110
Angular grid pruning method      GridPruning ... 3 (G Style)
Weight generation scheme         WeightScheme... Becke
Basis function cutoff            BFCut       ...    1.0000e-11
Integration weight cutoff        WCut        ...    1.0000e-14
Grids for H and He will be reduced by one unit

# of grid points (after initial pruning)     ...  37764 (   0.0 sec)
# of grid points (after weights+screening)   ...  33789 (   0.2 sec)
nearest neighbour list constructed           ...    0.0 sec
Grid point re-assignment to atoms done       ...    0.0 sec
Grid point division into batches done        ...    0.0 sec
Reduced shell lists constructed in    0.3 sec

Total number of grid points                  ...    33789
Total number of batches                      ...      541
Average number of points per batch           ...       62
Average number of grid points per atom       ...     1126
Average number of shells per batch           ...    82.70 (59.93%)
Average number of basis functions per batch  ...   167.93 (57.12%)
Average number of large shells per batch     ...    58.04 (70.18%)
Average number of large basis fcns per batch ...   117.57 (70.01%)
Maximum spatial batch extension              ...  21.58, 26.11, 24.24 au
Average spatial batch extension              ...   3.34,  3.73,  3.72 au

Time for grid setup =    0.526 sec

------------------------------
INITIAL GUESS: MODEL POTENTIAL
------------------------------
Loading Hartree-Fock densities                     ... done
Calculating cut-offs                               ... done
Setting up the integral package                    ... done
Initializing the effective Hamiltonian             ... done
Starting the Coulomb interaction                   ... done (   0.4 sec)
Reading the grid                                   ... done
Mapping shells                                     ... done
Starting the XC term evaluation                    ... done (   0.5 sec)
  promolecular density results
     # of electrons  =    113.987963851
     EX              =    -91.912394942
     EC              =     -3.820929590
     EX+EC           =    -95.733324531
Transforming the Hamiltonian                       ... done (   0.0 sec)
Diagonalizing the Hamiltonian                      ... done (   0.0 sec)
Back transforming the eigenvectors                 ... done (   0.0 sec)
Now organizing SCF variables                       ... done
                      ------------------
                      INITIAL GUESS DONE (   1.5 sec)
                      ------------------
--------------
SCF ITERATIONS
--------------
ITER       Energy         Delta-E        Max-DP      RMS-DP      [F,P]     Damp
               ***  Starting incremental Fock matrix formation  ***
  0   -687.5070031225   0.000000000000 0.07822302  0.00163795  0.2278125 0.7000
  1   -687.6415333163  -0.134530193849 0.04724938  0.00122616  0.1228687 0.7000
                               ***Turning on DIIS***
  2   -687.7108750964  -0.069341780032 0.07061174  0.00253281  0.0538503 0.0000
  3   -687.8267685807  -0.115893484356 0.04102973  0.00067080  0.0558388 0.0000
  4   -687.8419282179  -0.015159637194 0.00578377  0.00015935  0.0064623 0.0000
  5   -687.8423282809  -0.000400062936 0.00240973  0.00005463  0.0037061 0.0000
                      *** Initiating the SOSCF procedure ***
                           *** Shutting down DIIS ***
                      *** Re-Reading the Fockian *** 
                      *** Removing any level shift *** 
ITER      Energy       Delta-E        Grad      Rot      Max-DP    RMS-DP
  6   -687.84237785  -0.0000495707  0.000361  0.000361  0.000914  0.000032
               *** Restarting incremental Fock matrix formation ***
  7   -687.84238579  -0.0000079424  0.000098  0.000264  0.000542  0.000012
  8   -687.84238643  -0.0000006380  0.000101  0.000176  0.000247  0.000005
  9   -687.84238705  -0.0000006215  0.000019  0.000072  0.000091  0.000002
 10   -687.84238707  -0.0000000180  0.000010  0.000027  0.000036  0.000001
 11   -687.84238708  -0.0000000093  0.000004  0.000010  0.000008  0.000000
                  ***Gradient check signals convergence***
              ***Rediagonalizing the Fockian in SOSCF/NRSCF***

               *****************************************************
               *                     SUCCESS                       *
               *           SCF CONVERGED AFTER  12 CYCLES          *
               *****************************************************

Setting up the final grid:

General Integration Accuracy     IntAcc      ...  4.670
Radial Grid Type                 RadialGrid  ... Gauss-Chebyshev
Angular Grid (max. acc.)         AngularGrid ... Lebedev-302
Angular grid pruning method      GridPruning ... 3 (G Style)
Weight generation scheme         WeightScheme... Becke
Basis function cutoff            BFCut       ...    1.0000e-11
Integration weight cutoff        WCut        ...    1.0000e-14
Grids for H and He will be reduced by one unit

# of grid points (after initial pruning)     ... 146908 (   0.1 sec)
# of grid points (after weights+screening)   ... 128879 (   0.7 sec)
nearest neighbour list constructed           ...    0.0 sec
Grid point re-assignment to atoms done       ...    0.0 sec
Grid point division into batches done        ...    0.4 sec
Reduced shell lists constructed in    1.4 sec

Total number of grid points                  ...   128879
Total number of batches                      ...     2029
Average number of points per batch           ...       63
Average number of grid points per atom       ...     4296
Average number of shells per batch           ...    75.45 (54.67%)
Average number of basis functions per batch  ...   152.04 (51.71%)
Average number of large shells per batch     ...    51.83 (68.70%)
Average number of large basis fcns per batch ...   103.95 (68.37%)
Maximum spatial batch extension              ...  19.51, 21.66, 21.81 au
Average spatial batch extension              ...   2.24,  2.37,  2.34 au

Final grid set up in    2.2 sec
Final integration                            ... done (   2.4 sec)
Change in XC energy                          ...     0.003087078
Integrated number of electrons               ...   113.999808412
Previous integrated no of electrons          ...   113.997099442

----------------
TOTAL SCF ENERGY
----------------

Total Energy       :         -687.83930000 Eh          -18717.05891 eV

Components:
Nuclear Repulsion  :         1076.07025574 Eh           29281.36029 eV
Electronic Energy  :        -1763.90955575 Eh          -47998.41920 eV
One Electron Energy:        -3067.93362884 Eh          -83482.71822 eV
Two Electron Energy:         1304.02407309 Eh           35484.29902 eV

Virial components:
Potential Energy   :        -1368.80879516 Eh          -37247.18093 eV
Kinetic Energy     :          680.96949515 Eh           18530.12202 eV
Virial Ratio       :            2.01008827


DFT components:
N(Alpha)           :       56.999904205827 electrons
N(Beta)            :       56.999904205827 electrons
N(Total)           :      113.999808411653 electrons
E(XC)              :      -67.470033657293 Eh       
DFET-embed. en.    :        0.000000000000 Eh       

---------------
SCF CONVERGENCE
---------------

  Last Energy change         ...   -1.0241e-09  Tolerance :   1.0000e-08
  Last MAX-Density change    ...    3.9345e-06  Tolerance :   1.0000e-07
  Last RMS-Density change    ...    9.8577e-08  Tolerance :   5.0000e-09
  Last Orbital Gradient      ...    1.3039e-06  Tolerance :   1.0000e-05
  Last Orbital Rotation      ...    3.3724e-06  Tolerance :   1.0000e-05

             **** THE GBW FILE WAS UPDATED (059200416.gbw) ****
             **** DENSITY FILE WAS UPDATED (059200416.scfp) ****
             **** ENERGY FILE WAS UPDATED (059200416.en.tmp) ****
             **** THE GBW FILE WAS UPDATED (059200416.gbw) ****
             **** DENSITY FILE WAS UPDATED (059200416.scfp) ****
----------------
ORBITAL ENERGIES
----------------

  NO   OCC          E(Eh)            E(eV) 
   0   2.0000     -19.226433      -523.1778 
   1   2.0000     -14.442606      -393.0033 
   2   2.0000     -14.394372      -391.6908 
   3   2.0000     -10.343732      -281.4673 
   4   2.0000     -10.340324      -281.3745 
   5   2.0000     -10.337437      -281.2960 
   6   2.0000     -10.321766      -280.8695 
   7   2.0000     -10.308337      -280.5041 
   8   2.0000     -10.308183      -280.4999 
   9   2.0000     -10.304445      -280.3982 
  10   2.0000     -10.296877      -280.1923 
  11   2.0000     -10.293414      -280.0980 
  12   2.0000     -10.292123      -280.0629 
  13   2.0000     -10.289682      -279.9965 
  14   2.0000     -10.289088      -279.9803 
  15   2.0000     -10.284428      -279.8535 
  16   2.0000      -1.130835       -30.7716 
  17   2.0000      -1.072684       -29.1892 
  18   2.0000      -0.985394       -26.8139 
  19   2.0000      -0.972181       -26.4544 
  20   2.0000      -0.929760       -25.3001 
  21   2.0000      -0.908007       -24.7081 
  22   2.0000      -0.868175       -23.6242 
  23   2.0000      -0.858790       -23.3689 
  24   2.0000      -0.810862       -22.0647 
  25   2.0000      -0.755989       -20.5715 
  26   2.0000      -0.744924       -20.2704 
  27   2.0000      -0.728978       -19.8365 
  28   2.0000      -0.710681       -19.3386 
  29   2.0000      -0.677491       -18.4355 
  30   2.0000      -0.655923       -17.8486 
  31   2.0000      -0.630914       -17.1680 
  32   2.0000      -0.607031       -16.5181 
  33   2.0000      -0.594778       -16.1847 
  34   2.0000      -0.584081       -15.8937 
  35   2.0000      -0.572602       -15.5813 
  36   2.0000      -0.558706       -15.2032 
  37   2.0000      -0.554999       -15.1023 
  38   2.0000      -0.539110       -14.6699 
  39   2.0000      -0.525310       -14.2944 
  40   2.0000      -0.521318       -14.1858 
  41   2.0000      -0.519177       -14.1275 
  42   2.0000      -0.509490       -13.8639 
  43   2.0000      -0.499720       -13.5981 
  44   2.0000      -0.482887       -13.1400 
  45   2.0000      -0.474734       -12.9182 
  46   2.0000      -0.460647       -12.5349 
  47   2.0000      -0.443149       -12.0587 
  48   2.0000      -0.434056       -11.8113 
  49   2.0000      -0.422256       -11.4902 
  50   2.0000      -0.394769       -10.7422 
  51   2.0000      -0.379907       -10.3378 
  52   2.0000      -0.374763       -10.1978 
  53   2.0000      -0.363590        -9.8938 
  54   2.0000      -0.344135        -9.3644 
  55   2.0000      -0.332060        -9.0358 
  56   2.0000      -0.311818        -8.4850 
  57   0.0000       0.036611         0.9962 
  58   0.0000       0.047935         1.3044 
  59   0.0000       0.069146         1.8815 
  60   0.0000       0.071483         1.9451 
  61   0.0000       0.140542         3.8244 
  62   0.0000       0.153435         4.1752 
  63   0.0000       0.172761         4.7011 
  64   0.0000       0.181884         4.9493 
  65   0.0000       0.194146         5.2830 
  66   0.0000       0.195702         5.3253 
  67   0.0000       0.207152         5.6369 
  68   0.0000       0.211417         5.7529 
  69   0.0000       0.217617         5.9216 
  70   0.0000       0.223527         6.0825 
  71   0.0000       0.227801         6.1988 
  72   0.0000       0.237843         6.4720 
  73   0.0000       0.251716         6.8495 
  74   0.0000       0.262083         7.1316 
  75   0.0000       0.264007         7.1840 
  76   0.0000       0.277645         7.5551 
  77   0.0000       0.292300         7.9539 
  78   0.0000       0.311074         8.4647 
  79   0.0000       0.323056         8.7908 
  80   0.0000       0.343945         9.3592 
  81   0.0000       0.350644         9.5415 
  82   0.0000       0.354998         9.6600 
  83   0.0000       0.366997         9.9865 
  84   0.0000       0.381719        10.3871 
  85   0.0000       0.384977        10.4757 
  86   0.0000       0.395034        10.7494 
  87   0.0000       0.404038        10.9944 
  88   0.0000       0.432847        11.7784 
  89   0.0000       0.436434        11.8760 
  90   0.0000       0.452492        12.3129 
  91   0.0000       0.462235        12.5781 
  92   0.0000       0.475161        12.9298 
  93   0.0000       0.495457        13.4821 
  94   0.0000       0.513629        13.9766 
  95   0.0000       0.525141        14.2898 
  96   0.0000       0.527773        14.3614 
  97   0.0000       0.540077        14.6962 
  98   0.0000       0.547502        14.8983 
  99   0.0000       0.550648        14.9839 
 100   0.0000       0.559124        15.2145 
 101   0.0000       0.567647        15.4465 
 102   0.0000       0.572525        15.5792 
 103   0.0000       0.592068        16.1110 
 104   0.0000       0.593791        16.1579 
 105   0.0000       0.599936        16.3251 
 106   0.0000       0.606921        16.5152 
 107   0.0000       0.618779        16.8378 
 108   0.0000       0.622506        16.9392 
 109   0.0000       0.642951        17.4956 
 110   0.0000       0.648991        17.6600 
 111   0.0000       0.652600        17.7582 
 112   0.0000       0.675074        18.3697 
 113   0.0000       0.680324        18.5126 
 114   0.0000       0.693468        18.8702 
 115   0.0000       0.700969        19.0743 
 116   0.0000       0.711206        19.3529 
 117   0.0000       0.725041        19.7294 
 118   0.0000       0.728712        19.8292 
 119   0.0000       0.731872        19.9153 
 120   0.0000       0.736340        20.0368 
 121   0.0000       0.749584        20.3972 
 122   0.0000       0.756993        20.5988 
 123   0.0000       0.761320        20.7166 
 124   0.0000       0.763906        20.7869 
 125   0.0000       0.766561        20.8592 
 126   0.0000       0.772490        21.0205 
 127   0.0000       0.781411        21.2633 
 128   0.0000       0.789251        21.4766 
 129   0.0000       0.797473        21.7003 
 130   0.0000       0.801757        21.8169 
 131   0.0000       0.816330        22.2135 
 132   0.0000       0.819256        22.2931 
 133   0.0000       0.828307        22.5394 
 134   0.0000       0.830665        22.6035 
 135   0.0000       0.844626        22.9834 
 136   0.0000       0.854192        23.2438 
 137   0.0000       0.858750        23.3678 
 138   0.0000       0.867883        23.6163 
 139   0.0000       0.872778        23.7495 
 140   0.0000       0.881918        23.9982 
 141   0.0000       0.904985        24.6259 
 142   0.0000       0.909523        24.7494 
 143   0.0000       0.924199        25.1487 
 144   0.0000       0.947217        25.7751 
 145   0.0000       0.954235        25.9661 
 146   0.0000       0.961774        26.1712 
 147   0.0000       0.973972        26.5031 
 148   0.0000       1.018252        27.7081 
 149   0.0000       1.034256        28.1435 
 150   0.0000       1.040345        28.3092 
 151   0.0000       1.059108        28.8198 
 152   0.0000       1.064631        28.9701 
 153   0.0000       1.077398        29.3175 
 154   0.0000       1.125651        30.6305 
 155   0.0000       1.132979        30.8299 
 156   0.0000       1.152917        31.3725 
 157   0.0000       1.186277        32.2802 
 158   0.0000       1.205035        32.7907 
 159   0.0000       1.227042        33.3895 
 160   0.0000       1.245816        33.9004 
 161   0.0000       1.267199        34.4822 
 162   0.0000       1.272397        34.6237 
 163   0.0000       1.288843        35.0712 
 164   0.0000       1.296935        35.2914 
 165   0.0000       1.324220        36.0339 
 166   0.0000       1.327707        36.1288 
 167   0.0000       1.336955        36.3804 
 168   0.0000       1.345481        36.6124 
 169   0.0000       1.356286        36.9064 
 170   0.0000       1.368784        37.2465 
 171   0.0000       1.374565        37.4038 
 172   0.0000       1.385649        37.7054 
 173   0.0000       1.404497        38.2183 
 174   0.0000       1.409014        38.3412 
 175   0.0000       1.425095        38.7788 
 176   0.0000       1.436711        39.0949 
 177   0.0000       1.455157        39.5968 
 178   0.0000       1.496549        40.7232 
 179   0.0000       1.540696        41.9245 
 180   0.0000       1.561966        42.5033 
 181   0.0000       1.564161        42.5630 
 182   0.0000       1.584277        43.1104 
 183   0.0000       1.606330        43.7105 
 184   0.0000       1.649223        44.8776 
 185   0.0000       1.709409        46.5154 
 186   0.0000       1.727597        47.0103 
 187   0.0000       1.760272        47.8994 
 188   0.0000       1.764337        48.0100 
 189   0.0000       1.776264        48.3346 
 190   0.0000       1.784737        48.5652 
 191   0.0000       1.797944        48.9245 
 192   0.0000       1.811472        49.2927 
 193   0.0000       1.816457        49.4283 
 194   0.0000       1.821327        49.5608 
 195   0.0000       1.836851        49.9833 
 196   0.0000       1.841113        50.0992 
 197   0.0000       1.853086        50.4250 
 198   0.0000       1.858833        50.5814 
 199   0.0000       1.862049        50.6689 
 200   0.0000       1.875325        51.0302 
 201   0.0000       1.877772        51.0968 
 202   0.0000       1.886133        51.3243 
 203   0.0000       1.890220        51.4355 
 204   0.0000       1.902985        51.7829 
 205   0.0000       1.911455        52.0133 
 206   0.0000       1.918020        52.1920 
 207   0.0000       1.925254        52.3888 
 208   0.0000       1.944418        52.9103 
 209   0.0000       1.950157        53.0665 
 210   0.0000       1.957239        53.2592 
 211   0.0000       1.983252        53.9670 
 212   0.0000       1.993496        54.2458 
 213   0.0000       2.025372        55.1132 
 214   0.0000       2.031530        55.2807 
 215   0.0000       2.037402        55.4405 
 216   0.0000       2.041886        55.5625 
 217   0.0000       2.047328        55.7106 
 218   0.0000       2.062847        56.1329 
 219   0.0000       2.066431        56.2304 
 220   0.0000       2.084895        56.7329 
 221   0.0000       2.087317        56.7988 
 222   0.0000       2.106432        57.3189 
 223   0.0000       2.119122        57.6643 
 224   0.0000       2.123032        57.7706 
 225   0.0000       2.146298        58.4037 
 226   0.0000       2.166039        58.9409 
 227   0.0000       2.184279        59.4372 
 228   0.0000       2.193522        59.6888 
 229   0.0000       2.225834        60.5680 
 230   0.0000       2.235590        60.8335 
 231   0.0000       2.241797        61.0024 
 232   0.0000       2.252049        61.2814 
 233   0.0000       2.265231        61.6401 
 234   0.0000       2.268213        61.7212 
 235   0.0000       2.289288        62.2947 
 236   0.0000       2.309582        62.8469 
 237   0.0000       2.324912        63.2641 
 238   0.0000       2.359582        64.2075 
 239   0.0000       2.378287        64.7165 
 240   0.0000       2.386403        64.9373 
 241   0.0000       2.400517        65.3214 
 242   0.0000       2.412951        65.6597 
 243   0.0000       2.419117        65.8275 
 244   0.0000       2.429538        66.1111 
 245   0.0000       2.437446        66.3263 
 246   0.0000       2.460095        66.9426 
 247   0.0000       2.492255        67.8177 
 248   0.0000       2.499081        68.0035 
 249   0.0000       2.516518        68.4779 
 250   0.0000       2.532114        68.9023 
 251   0.0000       2.543023        69.1992 
 252   0.0000       2.578524        70.1652 
 253   0.0000       2.598853        70.7184 
 254   0.0000       2.642319        71.9011 
 255   0.0000       2.672897        72.7332 
 256   0.0000       2.676029        72.8185 
 257   0.0000       2.713486        73.8377 
 258   0.0000       2.739726        74.5517 
 259   0.0000       2.751777        74.8797 
 260   0.0000       2.758273        75.0564 
 261   0.0000       2.773387        75.4677 
 262   0.0000       2.800367        76.2019 
 263   0.0000       2.835045        77.1455 
 264   0.0000       2.841045        77.3088 
 265   0.0000       2.843080        77.3641 
 266   0.0000       2.859349        77.8068 
 267   0.0000       2.868529        78.0566 
 268   0.0000       2.878173        78.3191 
 269   0.0000       2.923957        79.5649 
 270   0.0000       2.964771        80.6755 
 271   0.0000       2.978099        81.0382 
 272   0.0000       2.984354        81.2084 
 273   0.0000       2.991412        81.4005 
 274   0.0000       3.014841        82.0380 
 275   0.0000       3.027623        82.3858 
 276   0.0000       3.072568        83.6088 
 277   0.0000       3.094195        84.1973 
 278   0.0000       3.153252        85.8043 
 279   0.0000       3.161847        86.0382 
 280   0.0000       3.196282        86.9753 
 281   0.0000       3.213626        87.4472 
 282   0.0000       3.225256        87.7637 
 283   0.0000       3.241441        88.2041 
 284   0.0000       3.255671        88.5913 
 285   0.0000       3.290684        89.5441 
 286   0.0000       3.351518        91.1994 
 287   0.0000       3.395059        92.3842 
 288   0.0000       3.456800        94.0643 
 289   0.0000       3.522878        95.8624 
 290   0.0000       3.589175        97.6664 
 291   0.0000       3.766622       102.4950 
 292   0.0000       3.782011       102.9138 
 293   0.0000       3.910049       106.3978 

                    ********************************
                    * MULLIKEN POPULATION ANALYSIS *
                    ********************************

-----------------------
MULLIKEN ATOMIC CHARGES
-----------------------
   0 C :   -0.005741
   1 C :   -0.006787
   2 C :   -0.050207
   3 C :   -0.018492
   4 C :   -0.010260
   5 C :   -0.002271
   6 H :    0.011372
   7 H :    0.009698
   8 C :    0.016019
   9 C :    0.008286
  10 N :   -0.172126
  11 C :    0.054139
  12 C :   -0.048720
  13 C :    0.045592
  14 C :   -0.018409
  15 H :    0.017196
  16 H :    0.027751
  17 H :    0.029380
  18 H :    0.032860
  19 O :   -0.286572
  20 H :    0.171819
  21 C :    0.164511
  22 N :   -0.234287
  23 H :    0.111151
  24 H :    0.098647
  25 H :    0.011167
  26 H :    0.020096
  27 H :    0.002311
  28 H :    0.009418
  29 H :    0.012458
Sum of atomic charges:    0.0000000

--------------------------------
MULLIKEN REDUCED ORBITAL CHARGES
--------------------------------
  0 C s       :     3.144171  s :     3.144171
      pz      :     0.965909  p :     2.825546
      px      :     0.913623
      py      :     0.946014
      dz2     :     0.011081  d :     0.036024
      dxz     :     0.009152
      dyz     :     0.008139
      dx2y2   :     0.002944
      dxy     :     0.004708
  1 C s       :     3.146603  s :     3.146603
      pz      :     0.893341  p :     2.823822
      px      :     0.956668
      py      :     0.973813
      dz2     :     0.008809  d :     0.036362
      dxz     :     0.009666
      dyz     :     0.006461
      dx2y2   :     0.006242
      dxy     :     0.005185
  2 C s       :     3.199100  s :     3.199100
      pz      :     0.895355  p :     2.815796
      px      :     0.960808
      py      :     0.959632
      dz2     :     0.008361  d :     0.035311
      dxz     :     0.008834
      dyz     :     0.007017
      dx2y2   :     0.005946
      dxy     :     0.005153
  3 C s       :     3.077344  s :     3.077344
      pz      :     0.947437  p :     2.899604
      px      :     0.965805
      py      :     0.986361
      dz2     :     0.011163  d :     0.041544
      dxz     :     0.009860
      dyz     :     0.008883
      dx2y2   :     0.005613
      dxy     :     0.006025
  4 C s       :     3.222609  s :     3.222609
      pz      :     0.914740  p :     2.752405
      px      :     0.903379
      py      :     0.934286
      dz2     :     0.008319  d :     0.035246
      dxz     :     0.009307
      dyz     :     0.006603
      dx2y2   :     0.005879
      dxy     :     0.005138
  5 C s       :     3.146354  s :     3.146354
      pz      :     0.894874  p :     2.819619
      px      :     0.962468
      py      :     0.962277
      dz2     :     0.008657  d :     0.036298
      dxz     :     0.009197
      dyz     :     0.007288
      dx2y2   :     0.005903
      dxy     :     0.005253
  6 H s       :     0.965252  s :     0.965252
      pz      :     0.012339  p :     0.023376
      px      :     0.004985
      py      :     0.006052
  7 H s       :     0.966288  s :     0.966288
      pz      :     0.012125  p :     0.024014
      px      :     0.006845
      py      :     0.005045
  8 C s       :     3.052660  s :     3.052660
      pz      :     0.907454  p :     2.854895
      px      :     0.983466
      py      :     0.963976
      dz2     :     0.021913  d :     0.076426
      dxz     :     0.010662
      dyz     :     0.020521
      dx2y2   :     0.008856
      dxy     :     0.014473
  9 C s       :     3.087118  s :     3.087118
      pz      :     0.908133  p :     2.843258
      px      :     0.985151
      py      :     0.949973
      dz2     :     0.013189  d :     0.061339
      dxz     :     0.013072
      dyz     :     0.009415
      dx2y2   :     0.012527
      dxy     :     0.013136
 10 N s       :     3.468046  s :     3.468046
      pz      :     1.322124  p :     3.675289
      px      :     1.020342
      py      :     1.332823
      dz2     :     0.005498  d :     0.028790
      dxz     :     0.007426
      dyz     :     0.003588
      dx2y2   :     0.004796
      dxy     :     0.007482
 11 C s       :     3.128837  s :     3.128837
      pz      :     0.921529  p :     2.761011
      px      :     0.920231
      py      :     0.919251
      dz2     :     0.007763  d :     0.056014
      dxz     :     0.014880
      dyz     :     0.007009
      dx2y2   :     0.013894
      dxy     :     0.012468
 12 C s       :     3.146391  s :     3.146391
      pz      :     0.981649  p :     2.868484
      px      :     0.917320
      py      :     0.969515
      dz2     :     0.007314  d :     0.033845
      dxz     :     0.007018
      dyz     :     0.006086
      dx2y2   :     0.006629
      dxy     :     0.006799
 13 C s       :     3.123328  s :     3.123328
      pz      :     0.914375  p :     2.794236
      px      :     0.964172
      py      :     0.915689
      dz2     :     0.005835  d :     0.036844
      dxz     :     0.008562
      dyz     :     0.005971
      dx2y2   :     0.008542
      dxy     :     0.007934
 14 C s       :     3.168640  s :     3.168640
      pz      :     0.944051  p :     2.816583
      px      :     0.889061
      py      :     0.983471
      dz2     :     0.005332  d :     0.033186
      dxz     :     0.007795
      dyz     :     0.005656
      dx2y2   :     0.007774
      dxy     :     0.006629
 15 H s       :     0.958641  s :     0.958641
      pz      :     0.008427  p :     0.024163
      px      :     0.011407
      py      :     0.004329
 16 H s       :     0.948771  s :     0.948771
      pz      :     0.009874  p :     0.023477
      px      :     0.003630
      py      :     0.009974
 17 H s       :     0.947331  s :     0.947331
      pz      :     0.003804  p :     0.023289
      px      :     0.012577
      py      :     0.006908
 18 H s       :     0.945846  s :     0.945846
      pz      :     0.009078  p :     0.021294
      px      :     0.008269
      py      :     0.003947
 19 O s       :     3.694732  s :     3.694732
      pz      :     1.406218  p :     4.579140
      px      :     1.415282
      py      :     1.757640
      dz2     :     0.003524  d :     0.012700
      dxz     :     0.001637
      dyz     :     0.003133
      dx2y2   :     0.003257
      dxy     :     0.001148
 20 H s       :     0.754884  s :     0.754884
      pz      :     0.016745  p :     0.073297
      px      :     0.039007
      py      :     0.017546
 21 C s       :     2.969474  s :     2.969474
      pz      :     0.953855  p :     2.814471
      px      :     0.954337
      py      :     0.906279
      dz2     :     0.009325  d :     0.051543
      dxz     :     0.005155
      dyz     :     0.012380
      dx2y2   :     0.010175
      dxy     :     0.014508
 22 N s       :     3.387735  s :     3.387735
      pz      :     1.372303  p :     3.826581
      px      :     1.055279
      py      :     1.398999
      dz2     :     0.007088  d :     0.019971
      dxz     :     0.000948
      dyz     :     0.002097
      dx2y2   :     0.002426
      dxy     :     0.007413
 23 H s       :     0.843071  s :     0.843071
      pz      :     0.022437  p :     0.045778
      px      :     0.008518
      py      :     0.014823
 24 H s       :     0.855000  s :     0.855000
      pz      :     0.012981  p :     0.046353
      px      :     0.019645
      py      :     0.013726
 25 H s       :     0.967334  s :     0.967334
      pz      :     0.012610  p :     0.021500
      px      :     0.003548
      py      :     0.005342
 26 H s       :     0.958959  s :     0.958959
      pz      :     0.004453  p :     0.020945
      px      :     0.010241
      py      :     0.006251
 27 H s       :     0.973653  s :     0.973653
      pz      :     0.012503  p :     0.024036
      px      :     0.005135
      py      :     0.006398
 28 H s       :     0.967390  s :     0.967390
      pz      :     0.012033  p :     0.023191
      px      :     0.006529
      py      :     0.004629
 29 H s       :     0.964184  s :     0.964184
      pz      :     0.003328  p :     0.023358
      px      :     0.011500
      py      :     0.008531


                     *******************************
                     * LOEWDIN POPULATION ANALYSIS *
                     *******************************

----------------------
LOEWDIN ATOMIC CHARGES
----------------------
   0 C :   -0.031543
   1 C :   -0.028826
   2 C :   -0.045269
   3 C :   -0.028865
   4 C :   -0.010873
   5 C :   -0.023986
   6 H :    0.029776
   7 H :    0.030315
   8 C :    0.016668
   9 C :    0.023768
  10 N :   -0.086939
  11 C :    0.029457
  12 C :   -0.054906
  13 C :    0.014306
  14 C :   -0.038288
  15 H :    0.035783
  16 H :    0.036585
  17 H :    0.036152
  18 H :    0.026312
  19 O :   -0.118878
  20 H :    0.054276
  21 C :    0.015484
  22 N :   -0.112575
  23 H :    0.057892
  24 H :    0.051349
  25 H :    0.013818
  26 H :    0.025902
  27 H :    0.024295
  28 H :    0.029605
  29 H :    0.029205

-------------------------------
LOEWDIN REDUCED ORBITAL CHARGES
-------------------------------
  0 C s       :     2.851183  s :     2.851183
      pz      :     1.071442  p :     3.086740
      px      :     1.018018
      py      :     0.997280
      dz2     :     0.031134  d :     0.093621
      dxz     :     0.024927
      dyz     :     0.020400
      dx2y2   :     0.005503
      dxy     :     0.011657
  1 C s       :     2.850500  s :     2.850500
      pz      :     1.050319  p :     3.084053
      px      :     1.028456
      py      :     1.005279
      dz2     :     0.024382  d :     0.094272
      dxz     :     0.025687
      dyz     :     0.016542
      dx2y2   :     0.013449
      dxy     :     0.014212
  2 C s       :     2.849725  s :     2.849725
      pz      :     1.044187  p :     3.101719
      px      :     1.039713
      py      :     1.017819
      dz2     :     0.024044  d :     0.093824
      dxz     :     0.024939
      dyz     :     0.017966
      dx2y2   :     0.012878
      dxy     :     0.013998
  3 C s       :     2.853700  s :     2.853700
      pz      :     1.085284  p :     3.067537
      px      :     0.999577
      py      :     0.982676
      dz2     :     0.031510  d :     0.107628
      dxz     :     0.027155
      dyz     :     0.021881
      dx2y2   :     0.011522
      dxy     :     0.015560
  4 C s       :     2.849908  s :     2.849908
      pz      :     1.053232  p :     3.067921
      px      :     1.023341
      py      :     0.991348
      dz2     :     0.023314  d :     0.093045
      dxz     :     0.025680
      dyz     :     0.017380
      dx2y2   :     0.012550
      dxy     :     0.014121
  5 C s       :     2.850778  s :     2.850778
      pz      :     1.048272  p :     3.078879
      px      :     1.032288
      py      :     0.998319
      dz2     :     0.024150  d :     0.094329
      dxz     :     0.025336
      dyz     :     0.018094
      dx2y2   :     0.012619
      dxy     :     0.014130
  6 H s       :     0.901531  s :     0.901531
      pz      :     0.034596  p :     0.068693
      px      :     0.015778
      py      :     0.018319
  7 H s       :     0.897432  s :     0.897432
      pz      :     0.035274  p :     0.072254
      px      :     0.021488
      py      :     0.015492
  8 C s       :     2.847607  s :     2.847607
      pz      :     0.916947  p :     2.963326
      px      :     1.038466
      py      :     1.007913
      dz2     :     0.049081  d :     0.172399
      dxz     :     0.019090
      dyz     :     0.047395
      dx2y2   :     0.018626
      dxy     :     0.038208
  9 C s       :     2.850081  s :     2.850081
      pz      :     0.990489  p :     2.975520
      px      :     1.000586
      py      :     0.984445
      dz2     :     0.030425  d :     0.150631
      dxz     :     0.033923
      dyz     :     0.024125
      dx2y2   :     0.029504
      dxy     :     0.032654
 10 N s       :     3.187714  s :     3.187714
      pz      :     1.346761  p :     3.837408
      px      :     1.148117
      py      :     1.342530
      dz2     :     0.009985  d :     0.061816
      dxz     :     0.017512
      dyz     :     0.005696
      dx2y2   :     0.011675
      dxy     :     0.016948
 11 C s       :     2.850542  s :     2.850542
      pz      :     1.003747  p :     2.984029
      px      :     0.994042
      py      :     0.986240
      dz2     :     0.018258  d :     0.135971
      dxz     :     0.035700
      dyz     :     0.018157
      dx2y2   :     0.032031
      dxy     :     0.031826
 12 C s       :     2.857869  s :     2.857869
      pz      :     1.038857  p :     3.106704
      px      :     1.040970
      py      :     1.026877
      dz2     :     0.018078  d :     0.090333
      dxz     :     0.019767
      dyz     :     0.016980
      dx2y2   :     0.017088
      dxy     :     0.018420
 13 C s       :     2.854471  s :     2.854471
      pz      :     0.996817  p :     3.036631
      px      :     1.054999
      py      :     0.984815
      dz2     :     0.013927  d :     0.094591
      dxz     :     0.022865
      dyz     :     0.014964
      dx2y2   :     0.021948
      dxy     :     0.020887
 14 C s       :     2.852357  s :     2.852357
      pz      :     1.026116  p :     3.095226
      px      :     1.045886
      py      :     1.023224
      dz2     :     0.013650  d :     0.090705
      dxz     :     0.021699
      dyz     :     0.015835
      dx2y2   :     0.020268
      dxy     :     0.019254
 15 H s       :     0.891964  s :     0.891964
      pz      :     0.025279  p :     0.072254
      px      :     0.032408
      py      :     0.014566
 16 H s       :     0.894932  s :     0.894932
      pz      :     0.028098  p :     0.068482
      px      :     0.012283
      py      :     0.028101
 17 H s       :     0.893528  s :     0.893528
      pz      :     0.013242  p :     0.070320
      px      :     0.035962
      py      :     0.021117
 18 H s       :     0.907067  s :     0.907067
      pz      :     0.027057  p :     0.066620
      px      :     0.026093
      py      :     0.013470
 19 O s       :     3.431415  s :     3.431415
      pz      :     1.434641  p :     4.663446
      px      :     1.488324
      py      :     1.740481
      dz2     :     0.007123  d :     0.024017
      dxz     :     0.003522
      dyz     :     0.005730
      dx2y2   :     0.006552
      dxy     :     0.001091
 20 H s       :     0.747704  s :     0.747704
      pz      :     0.041465  p :     0.198020
      px      :     0.107305
      py      :     0.049250
 21 C s       :     2.837846  s :     2.837846
      pz      :     1.034529  p :     3.025774
      px      :     0.995802
      py      :     0.995444
      dz2     :     0.022617  d :     0.120896
      dxz     :     0.009694
      dyz     :     0.032604
      dx2y2   :     0.022311
      dxy     :     0.033670
 22 N s       :     3.113449  s :     3.113449
      pz      :     1.403722  p :     3.955003
      px      :     1.136128
      py      :     1.415153
      dz2     :     0.014601  d :     0.044123
      dxz     :     0.002166
      dyz     :     0.004562
      dx2y2   :     0.005581
      dxy     :     0.017212
 23 H s       :     0.818692  s :     0.818692
      pz      :     0.065399  p :     0.123416
      px      :     0.018898
      py      :     0.039118
 24 H s       :     0.824668  s :     0.824668
      pz      :     0.031049  p :     0.123982
      px      :     0.052249
      py      :     0.040684
 25 H s       :     0.919882  s :     0.919882
      pz      :     0.037938  p :     0.066300
      px      :     0.012149
      py      :     0.016213
 26 H s       :     0.909242  s :     0.909242
      pz      :     0.012746  p :     0.064856
      px      :     0.031605
      py      :     0.020505
 27 H s       :     0.904696  s :     0.904696
      pz      :     0.035329  p :     0.071010
      px      :     0.016449
      py      :     0.019232
 28 H s       :     0.901749  s :     0.901749
      pz      :     0.034315  p :     0.068645
      px      :     0.019696
      py      :     0.014634
 29 H s       :     0.901823  s :     0.901823
      pz      :     0.011904  p :     0.068972
      px      :     0.032571
      py      :     0.024497


                      *****************************
                      * MAYER POPULATION ANALYSIS *
                      *****************************

  NA   - Mulliken gross atomic population
  ZA   - Total nuclear charge
  QA   - Mulliken gross atomic charge
  VA   - Mayer's total valence
  BVA  - Mayer's bonded valence
  FA   - Mayer's free valence

  ATOM       NA         ZA         QA         VA         BVA        FA
  0 C      6.0057     6.0000    -0.0057     3.8437     3.8437     0.0000
  1 C      6.0068     6.0000    -0.0068     3.8829     3.8829     0.0000
  2 C      6.0502     6.0000    -0.0502     3.8990     3.8990    -0.0000
  3 C      6.0185     6.0000    -0.0185     3.7328     3.7328    -0.0000
  4 C      6.0103     6.0000    -0.0103     3.9072     3.9072     0.0000
  5 C      6.0023     6.0000    -0.0023     3.8418     3.8418    -0.0000
  6 H      0.9886     1.0000     0.0114     0.9846     0.9846    -0.0000
  7 H      0.9903     1.0000     0.0097     1.0192     1.0192     0.0000
  8 C      5.9840     6.0000     0.0160     3.9319     3.9319     0.0000
  9 C      5.9917     6.0000     0.0083     3.9531     3.9531     0.0000
 10 N      7.1721     7.0000    -0.1721     3.1852     3.1852    -0.0000
 11 C      5.9459     6.0000     0.0541     4.0155     4.0155    -0.0000
 12 C      6.0487     6.0000    -0.0487     3.8641     3.8641     0.0000
 13 C      5.9544     6.0000     0.0456     3.9261     3.9261     0.0000
 14 C      6.0184     6.0000    -0.0184     3.8806     3.8806     0.0000
 15 H      0.9828     1.0000     0.0172     1.0077     1.0077     0.0000
 16 H      0.9722     1.0000     0.0278     0.9859     0.9859     0.0000
 17 H      0.9706     1.0000     0.0294     0.9884     0.9884     0.0000
 18 H      0.9671     1.0000     0.0329     0.9894     0.9894    -0.0000
 19 O      8.2866     8.0000    -0.2866     2.1409     2.1409     0.0000
 20 H      0.8282     1.0000     0.1718     1.0697     1.0697     0.0000
 21 C      5.8355     6.0000     0.1645     4.0198     4.0198     0.0000
 22 N      7.2343     7.0000    -0.2343     3.1220     3.1220     0.0000
 23 H      0.8888     1.0000     0.1112     1.0140     1.0140     0.0000
 24 H      0.9014     1.0000     0.0986     1.0146     1.0146     0.0000
 25 H      0.9888     1.0000     0.0112     0.9907     0.9907    -0.0000
 26 H      0.9799     1.0000     0.0201     1.0019     1.0019    -0.0000
 27 H      0.9977     1.0000     0.0023     0.9902     0.9902     0.0000
 28 H      0.9906     1.0000     0.0094     0.9841     0.9841     0.0000
 29 H      0.9875     1.0000     0.0125     0.9843     0.9843    -0.0000

  Mayer bond orders larger than 0.100000
B(  0-C ,  1-C ) :   1.4021 B(  0-C ,  5-C ) :   1.3822 B(  0-C , 29-H ) :   0.9944 
B(  1-C ,  2-C ) :   1.3943 B(  1-C , 28-H ) :   0.9912 B(  2-C ,  3-C ) :   1.3934 
B(  2-C , 27-H ) :   0.9894 B(  3-C ,  4-C ) :   1.4174 B(  3-C ,  8-C ) :   0.8957 
B(  4-C ,  5-C ) :   1.3885 B(  4-C ,  7-H ) :   0.9950 B(  5-C ,  6-H ) :   0.9945 
B(  8-C ,  9-C ) :   0.9158 B(  8-C , 19-O ) :   1.1373 B(  8-C , 21-C ) :   0.9901 
B(  9-C , 10-N ) :   1.5241 B(  9-C , 14-C ) :   1.3767 B( 10-N , 11-C ) :   1.4973 
B( 10-N , 20-H ) :   0.1025 B( 11-C , 12-C ) :   1.4037 B( 11-C , 18-H ) :   0.9823 
B( 12-C , 13-C ) :   1.4043 B( 12-C , 17-H ) :   0.9809 B( 13-C , 14-C ) :   1.4380 
B( 13-C , 16-H ) :   0.9825 B( 14-C , 15-H ) :   0.9758 B( 19-O , 20-H ) :   0.9262 
B( 21-C , 22-N ) :   1.1444 B( 21-C , 25-H ) :   0.9362 B( 21-C , 26-H ) :   0.9383 
B( 22-N , 23-H ) :   0.9655 B( 22-N , 24-H ) :   0.9759 

-------
TIMINGS
-------

Total SCF time: 0 days 0 hours 5 min 55 sec 

Total time                  ....     355.624 sec
Sum of individual times     ....     355.376 sec  ( 99.9%)

Fock matrix formation       ....     351.427 sec  ( 98.8%)
  XC integration            ....      10.275 sec  (  2.9% of F)
    Basis function eval.    ....       3.009 sec  ( 29.3% of XC)
    Density eval.           ....       2.096 sec  ( 20.4% of XC)
    XC-Functional eval.     ....       2.107 sec  ( 20.5% of XC)
    XC-Potential eval.      ....       2.794 sec  ( 27.2% of XC)
Diagonalization             ....       0.086 sec  (  0.0%)
Density matrix formation    ....       0.021 sec  (  0.0%)
Population analysis         ....       0.010 sec  (  0.0%)
Initial guess               ....       0.998 sec  (  0.3%)
Orbital Transformation      ....       0.000 sec  (  0.0%)
Orbital Orthonormalization  ....       0.000 sec  (  0.0%)
DIIS solution               ....       0.031 sec  (  0.0%)
SOSCF solution              ....       0.047 sec  (  0.0%)
Grid generation             ....       2.755 sec  (  0.8%)


-------------------------------------------------------------------------------
                          DFT DISPERSION CORRECTION                            
                                                                               
                              DFTD3 V3.1  Rev 1                                
                              USING zero damping                               
-------------------------------------------------------------------------------
The omegaB97X-D3 functional is recognized. Fit by Chai et al.
Active option DFTDOPT                   ...         3   

molecular C6(AA) [au] = 9915.277992 


            DFT-D V3
 parameters
 s6 scaling factor         :     1.0000 
 rs6 scaling factor        :     1.2810 
 s8 scaling factor         :     1.0000 
 rs8 scaling factor        :     1.0940 
 Damping factor alpha6     :    14.0000 
 Damping factor alpha8     :    16.0000 
 ad hoc parameters k1-k3   :    16.0000     1.3333    -4.0000 

 Edisp/kcal,au: -8.607044167798  -0.013716196497 
 E6   /kcal   :  -4.022813491 
 E8   /kcal   :  -4.584230677 
 % E8         :  53.261382047 

-------------------------   ----------------
Dispersion correction           -0.013716196
-------------------------   ----------------


-------------------------   --------------------
FINAL SINGLE POINT ENERGY      -687.853016200190
-------------------------   --------------------

------------------------------------------------------------------------------
                         ORCA SCF GRADIENT CALCULATION
------------------------------------------------------------------------------

Gradient of the Kohn-Sham DFT energy:
Kohn-Sham wavefunction type      ... RKS
Hartree-Fock exchange scaling    ...    0.196
Number of operators              ...    1
Number of atoms                  ...   30
Basis set dimensions             ...  294
Integral neglect threshold       ... 2.5e-11
[...]
      py      :     0.918542
      dz2     :     0.005724  d :     0.036036
      dxz     :     0.008531
      dyz     :     0.005670
      dx2y2   :     0.008261
      dxy     :     0.007849
 14 C s       :     3.174100  s :     3.174100
      pz      :     0.945650  p :     2.816312
      px      :     0.889849
      py      :     0.980814
      dz2     :     0.005237  d :     0.032591
      dxz     :     0.007684
      dyz     :     0.005487
      dx2y2   :     0.007565
      dxy     :     0.006618
 15 H s       :     0.950972  s :     0.950972
      pz      :     0.008132  p :     0.023463
      px      :     0.011053
      py      :     0.004278
 16 H s       :     0.940362  s :     0.940362
      pz      :     0.009657  p :     0.022840
      px      :     0.003467
      py      :     0.009717
 17 H s       :     0.939555  s :     0.939555
      pz      :     0.003598  p :     0.022637
      px      :     0.012584
      py      :     0.006454
 18 H s       :     0.936884  s :     0.936884
      pz      :     0.008842  p :     0.020915
      px      :     0.008193
      py      :     0.003880
 19 O s       :     3.695158  s :     3.695158
      pz      :     1.404220  p :     4.576448
      px      :     1.409895
      py      :     1.762333
      dz2     :     0.003864  d :     0.012996
      dxz     :     0.001544
      dyz     :     0.003236
      dx2y2   :     0.003170
      dxy     :     0.001182
 20 H s       :     0.752827  s :     0.752827
      pz      :     0.016317  p :     0.074657
      px      :     0.040517
      py      :     0.017823
 21 C s       :     2.981635  s :     2.981635
      pz      :     0.953146  p :     2.815513
      px      :     0.960489
      py      :     0.901878
      dz2     :     0.009586  d :     0.051639
      dxz     :     0.004666
      dyz     :     0.012174
      dx2y2   :     0.011391
      dxy     :     0.013823
 22 N s       :     3.395439  s :     3.395439
      pz      :     1.326448  p :     3.815647
      px      :     1.055095
      py      :     1.434105
      dz2     :     0.007748  d :     0.020170
      dxz     :     0.000700
      dyz     :     0.001721
      dx2y2   :     0.002849
      dxy     :     0.007153
 23 H s       :     0.842916  s :     0.842916
      pz      :     0.023347  p :     0.045927
      px      :     0.008779
      py      :     0.013802
 24 H s       :     0.853317  s :     0.853317
      pz      :     0.012636  p :     0.046041
      px      :     0.020419
      py      :     0.012986
 25 H s       :     0.964907  s :     0.964907
      pz      :     0.012550  p :     0.021230
      px      :     0.003655
      py      :     0.005025
 26 H s       :     0.958961  s :     0.958961
      pz      :     0.004424  p :     0.020750
      px      :     0.011031
      py      :     0.005295
 27 H s       :     0.969055  s :     0.969055
      pz      :     0.012395  p :     0.023547
      px      :     0.005169
      py      :     0.005983
 28 H s       :     0.960392  s :     0.960392
      pz      :     0.011998  p :     0.022679
      px      :     0.006052
      py      :     0.004628
 29 H s       :     0.956609  s :     0.956609
      pz      :     0.003106  p :     0.022718
      px      :     0.011315
      py      :     0.008297


                     *******************************
                     * LOEWDIN POPULATION ANALYSIS *
                     *******************************

----------------------
LOEWDIN ATOMIC CHARGES
----------------------
   0 C :   -0.034222
   1 C :   -0.031911
   2 C :   -0.046487
   3 C :   -0.031503
   4 C :   -0.014905
   5 C :   -0.027212
   6 H :    0.032109
   7 H :    0.033054
   8 C :    0.015193
   9 C :    0.026664
  10 N :   -0.088578
  11 C :    0.030940
  12 C :   -0.056310
  13 C :    0.011740
  14 C :   -0.040303
  15 H :    0.038945
  16 H :    0.039882
  17 H :    0.039540
  18 H :    0.030122
  19 O :   -0.117173
  20 H :    0.051837
  21 C :    0.010751
  22 N :   -0.114616
  23 H :    0.058368
  24 H :    0.054291
  25 H :    0.015744
  26 H :    0.024681
  27 H :    0.025530
  28 H :    0.031940
  29 H :    0.031891

-------------------------------
LOEWDIN REDUCED ORBITAL CHARGES
-------------------------------
  0 C s       :     2.859449  s :     2.859449
      pz      :     1.071005  p :     3.084089
      px      :     1.016784
      py      :     0.996300
      dz2     :     0.030512  d :     0.090684
      dxz     :     0.024524
      dyz     :     0.019910
      dx2y2   :     0.004985
      dxy     :     0.010755
  1 C s       :     2.858574  s :     2.858574
      pz      :     1.049761  p :     3.082092
      px      :     1.028252
      py      :     1.004079
      dz2     :     0.024115  d :     0.091245
      dxz     :     0.024794
      dyz     :     0.016036
      dx2y2   :     0.012604
      dxy     :     0.013696
  2 C s       :     2.857887  s :     2.857887
      pz      :     1.043394  p :     3.097878
      px      :     1.038150
      py      :     1.016335
      dz2     :     0.023573  d :     0.090722
      dxz     :     0.024485
      dyz     :     0.017028
      dx2y2   :     0.012170
      dxy     :     0.013466
  3 C s       :     2.861025  s :     2.861025
      pz      :     1.084369  p :     3.066131
      px      :     1.001540
      py      :     0.980222
      dz2     :     0.030945  d :     0.104348
      dxz     :     0.027138
      dyz     :     0.021007
      dx2y2   :     0.010631
      dxy     :     0.014627
  4 C s       :     2.858052  s :     2.858052
      pz      :     1.055198  p :     3.066694
      px      :     1.022148
      py      :     0.989347
      dz2     :     0.023005  d :     0.090159
      dxz     :     0.024922
      dyz     :     0.016908
      dx2y2   :     0.011783
      dxy     :     0.013541
  5 C s       :     2.859003  s :     2.859003
      pz      :     1.047720  p :     3.076989
      px      :     1.030567
      py      :     0.998702
      dz2     :     0.023811  d :     0.091221
      dxz     :     0.024919
      dyz     :     0.017106
      dx2y2   :     0.011855
      dxy     :     0.013530
  6 H s       :     0.901202  s :     0.901202
      pz      :     0.034316  p :     0.066689
      px      :     0.015761
      py      :     0.016612
  7 H s       :     0.895880  s :     0.895880
      pz      :     0.034814  p :     0.071066
      px      :     0.020390
      py      :     0.015862
  8 C s       :     2.850420  s :     2.850420
      pz      :     0.919842  p :     2.960274
      px      :     1.031523
      py      :     1.008909
      dz2     :     0.050594  d :     0.174113
      dxz     :     0.019609
      dyz     :     0.047940
      dx2y2   :     0.018273
      dxy     :     0.037697
  9 C s       :     2.856729  s :     2.856729
      pz      :     0.987280  p :     2.969965
      px      :     0.999946
      py      :     0.982740
      dz2     :     0.029628  d :     0.146642
      dxz     :     0.033231
      dyz     :     0.023651
      dx2y2   :     0.028581
      dxy     :     0.031551
 10 N s       :     3.190906  s :     3.190906
      pz      :     1.346325  p :     3.837536
      px      :     1.149351
      py      :     1.341860
      dz2     :     0.009744  d :     0.060137
      dxz     :     0.017013
      dyz     :     0.005526
      dx2y2   :     0.011286
      dxy     :     0.016569
 11 C s       :     2.857660  s :     2.857660
      pz      :     1.004672  p :     2.979711
      px      :     0.990440
      py      :     0.984599
      dz2     :     0.017829  d :     0.131690
      dxz     :     0.034750
      dyz     :     0.017240
      dx2y2   :     0.030942
      dxy     :     0.030929
 12 C s       :     2.864775  s :     2.864775
      pz      :     1.038038  p :     3.103232
      px      :     1.040100
      py      :     1.025094
      dz2     :     0.017658  d :     0.088303
      dxz     :     0.019554
      dyz     :     0.016627
      dx2y2   :     0.016881
      dxy     :     0.017583
 13 C s       :     2.861361  s :     2.861361
      pz      :     0.996496  p :     3.034692
      px      :     1.055887
      py      :     0.982308
      dz2     :     0.013623  d :     0.092207
      dxz     :     0.022718
      dyz     :     0.014081
      dx2y2   :     0.021311
      dxy     :     0.020474
 14 C s       :     2.859365  s :     2.859365
      pz      :     1.024927  p :     3.092369
      px      :     1.045699
      py      :     1.021743
      dz2     :     0.013327  d :     0.088569
      dxz     :     0.021243
      dyz     :     0.015242
      dx2y2   :     0.019696
      dxy     :     0.019060
 15 H s       :     0.891101  s :     0.891101
      pz      :     0.024435  p :     0.069954
      px      :     0.031409
      py      :     0.014110
 16 H s       :     0.893611  s :     0.893611
      pz      :     0.027503  p :     0.066508
      px      :     0.011602
      py      :     0.027403
 17 H s       :     0.892347  s :     0.892347
      pz      :     0.012401  p :     0.068113
      px      :     0.035971
      py      :     0.019741
 18 H s       :     0.904906  s :     0.904906
      pz      :     0.026303  p :     0.064972
      px      :     0.025720
      py      :     0.012949
 19 O s       :     3.430215  s :     3.430215
      pz      :     1.436375  p :     4.662402
      px      :     1.480098
      py      :     1.745928
      dz2     :     0.007781  d :     0.024556
      dxz     :     0.003247
      dyz     :     0.005887
      dx2y2   :     0.006432
      dxy     :     0.001210
 20 H s       :     0.745666  s :     0.745666
      pz      :     0.039795  p :     0.202498
      px      :     0.112649
      py      :     0.050053
 21 C s       :     2.840379  s :     2.840379
      pz      :     1.032983  p :     3.027767
      px      :     1.002440
      py      :     0.992343
      dz2     :     0.023360  d :     0.121104
      dxz     :     0.008670
      dyz     :     0.031664
      dx2y2   :     0.025521
      dxy     :     0.031889
 22 N s       :     3.121528  s :     3.121528
      pz      :     1.365377  p :     3.948863
      px      :     1.138329
      py      :     1.445157
      dz2     :     0.016320  d :     0.044225
      dxz     :     0.001893
      dyz     :     0.003465
      dx2y2   :     0.006359
      dxy     :     0.016190
 23 H s       :     0.818919  s :     0.818919
      pz      :     0.066647  p :     0.122713
      px      :     0.018910
      py      :     0.037156
 24 H s       :     0.823241  s :     0.823241
      pz      :     0.029160  p :     0.122468
      px      :     0.053986
      py      :     0.039321
 25 H s       :     0.919544  s :     0.919544
      pz      :     0.037551  p :     0.064712
      px      :     0.011816
      py      :     0.015345
 26 H s       :     0.911651  s :     0.911651
      pz      :     0.012410  p :     0.063668
      px      :     0.033542
      py      :     0.017716
 27 H s       :     0.905492  s :     0.905492
      pz      :     0.034800  p :     0.068978
      px      :     0.016322
      py      :     0.017856
 28 H s       :     0.901356  s :     0.901356
      pz      :     0.034074  p :     0.066704
      px      :     0.018276
      py      :     0.014354
 29 H s       :     0.901233  s :     0.901233
      pz      :     0.011054  p :     0.066876
      px      :     0.032084
      py      :     0.023739


                      *****************************
                      * MAYER POPULATION ANALYSIS *
                      *****************************

  NA   - Mulliken gross atomic population
  ZA   - Total nuclear charge
  QA   - Mulliken gross atomic charge
  VA   - Mayer's total valence
  BVA  - Mayer's bonded valence
  FA   - Mayer's free valence

  ATOM       NA         ZA         QA         VA         BVA        FA
  0 C      6.0148     6.0000    -0.0148     3.8494     3.8494     0.0000
  1 C      6.0147     6.0000    -0.0147     3.8876     3.8876    -0.0000
  2 C      6.0569     6.0000    -0.0569     3.9006     3.9006     0.0000
  3 C      6.0245     6.0000    -0.0245     3.7386     3.7386    -0.0000
  4 C      6.0160     6.0000    -0.0160     3.9089     3.9089    -0.0000
  5 C      6.0092     6.0000    -0.0092     3.8415     3.8415    -0.0000
  6 H      0.9809     1.0000     0.0191     0.9846     0.9846    -0.0000
  7 H      0.9802     1.0000     0.0198     1.0193     1.0193    -0.0000
  8 C      5.9801     6.0000     0.0199     3.9356     3.9356     0.0000
  9 C      5.9886     6.0000     0.0114     3.9493     3.9493     0.0000
 10 N      7.1860     7.0000    -0.1860     3.1770     3.1770    -0.0000
 11 C      5.9455     6.0000     0.0545     4.0076     4.0076    -0.0000
 12 C      6.0571     6.0000    -0.0571     3.8703     3.8703     0.0000
 13 C      5.9638     6.0000     0.0362     3.9244     3.9244     0.0000
 14 C      6.0230     6.0000    -0.0230     3.8826     3.8826     0.0000
 15 H      0.9744     1.0000     0.0256     1.0071     1.0071    -0.0000
 16 H      0.9632     1.0000     0.0368     0.9853     0.9853    -0.0000
 17 H      0.9622     1.0000     0.0378     0.9876     0.9876    -0.0000
 18 H      0.9578     1.0000     0.0422     0.9883     0.9883     0.0000
 19 O      8.2846     8.0000    -0.2846     2.1461     2.1461    -0.0000
 20 H      0.8275     1.0000     0.1725     1.0736     1.0736     0.0000
 21 C      5.8488     6.0000     0.1512     4.0097     4.0097    -0.0000
 22 N      7.2313     7.0000    -0.2313     3.1186     3.1186     0.0000
 23 H      0.8888     1.0000     0.1112     1.0178     1.0178     0.0000
 24 H      0.8994     1.0000     0.1006     1.0091     1.0091    -0.0000
 25 H      0.9861     1.0000     0.0139     0.9910     0.9910    -0.0000
 26 H      0.9797     1.0000     0.0203     1.0000     1.0000     0.0000
 27 H      0.9926     1.0000     0.0074     0.9907     0.9907     0.0000
 28 H      0.9831     1.0000     0.0169     0.9841     0.9841    -0.0000
 29 H      0.9793     1.0000     0.0207     0.9841     0.9841    -0.0000

  Mayer bond orders larger than 0.100000
B(  0-C ,  1-C ) :   1.4024 B(  0-C ,  5-C ) :   1.3869 B(  0-C , 29-H ) :   0.9899 
B(  1-C ,  2-C ) :   1.3988 B(  1-C , 28-H ) :   0.9878 B(  2-C ,  3-C ) :   1.3901 
B(  2-C , 27-H ) :   0.9861 B(  3-C ,  4-C ) :   1.4246 B(  3-C ,  8-C ) :   0.8926 
B(  4-C ,  5-C ) :   1.3856 B(  4-C ,  7-H ) :   0.9876 B(  5-C ,  6-H ) :   0.9903 
B(  8-C ,  9-C ) :   0.9149 B(  8-C , 19-O ) :   1.1395 B(  8-C , 21-C ) :   0.9877 
B(  9-C , 10-N ) :   1.5164 B(  9-C , 14-C ) :   1.3769 B( 10-N , 11-C ) :   1.4806 
B( 10-N , 20-H ) :   0.1140 B( 11-C , 12-C ) :   1.4129 B( 11-C , 18-H ) :   0.9791 
B( 12-C , 13-C ) :   1.4009 B( 12-C , 17-H ) :   0.9773 B( 13-C , 14-C ) :   1.4414 
B( 13-C , 16-H ) :   0.9792 B( 14-C , 15-H ) :   0.9730 B( 19-O , 20-H ) :   0.9194 
B( 21-C , 22-N ) :   1.1440 B( 21-C , 25-H ) :   0.9382 B( 21-C , 26-H ) :   0.9364 
B( 22-N , 23-H ) :   0.9638 B( 22-N , 24-H ) :   0.9738 

-------
TIMINGS
-------

Total SCF time: 0 days 0 hours 2 min 31 sec 

Total time                  ....     151.221 sec
Sum of individual times     ....     150.963 sec  ( 99.8%)

Fock matrix formation       ....     148.116 sec  ( 97.9%)
  XC integration            ....       5.782 sec  (  3.9% of F)
    Basis function eval.    ....       1.714 sec  ( 29.6% of XC)
    Density eval.           ....       1.221 sec  ( 21.1% of XC)
    XC-Functional eval.     ....       1.227 sec  ( 21.2% of XC)
    XC-Potential eval.      ....       1.462 sec  ( 25.3% of XC)
Diagonalization             ....       0.013 sec  (  0.0%)
Density matrix formation    ....       0.011 sec  (  0.0%)
Population analysis         ....       0.010 sec  (  0.0%)
Initial guess               ....       0.013 sec  (  0.0%)
Orbital Transformation      ....       0.000 sec  (  0.0%)
Orbital Orthonormalization  ....       0.009 sec  (  0.0%)
DIIS solution               ....       0.003 sec  (  0.0%)
SOSCF solution              ....       0.043 sec  (  0.0%)
Grid generation             ....       2.755 sec  (  1.8%)


-------------------------------------------------------------------------------
                          DFT DISPERSION CORRECTION                            
                                                                               
                              DFTD3 V3.1  Rev 1                                
                              USING zero damping                               
-------------------------------------------------------------------------------
The omegaB97X-D3 functional is recognized. Fit by Chai et al.
Active option DFTDOPT                   ...         3   

molecular C6(AA) [au] = 9936.183987 


            DFT-D V3
 parameters
 s6 scaling factor         :     1.0000 
 rs6 scaling factor        :     1.2810 
 s8 scaling factor         :     1.0000 
 rs8 scaling factor        :     1.0940 
 Damping factor alpha6     :    14.0000 
 Damping factor alpha8     :    16.0000 
 ad hoc parameters k1-k3   :    16.0000     1.3333    -4.0000 

 Edisp/kcal,au: -8.536433648125  -0.013603671483 
 E6   /kcal   :  -4.004421085 
 E8   /kcal   :  -4.532012563 
 % E8         :  53.090233582 

-------------------------   ----------------
Dispersion correction           -0.013603671
-------------------------   ----------------


-------------------------   --------------------
FINAL SINGLE POINT ENERGY      -687.856407207829
-------------------------   --------------------

                                *** OPTIMIZATION RUN DONE ***

                            ***************************************
                            *     ORCA property calculations      *
                            ***************************************

                                    ---------------------
                                    Active property flags
                                    ---------------------
   (+) Dipole Moment


------------------------------------------------------------------------------
                       ORCA ELECTRIC PROPERTIES CALCULATION
------------------------------------------------------------------------------

Dipole Moment Calculation                       ... on
Quadrupole Moment Calculation                   ... off
Polarizability Calculation                      ... off
GBWName                                         ... 059200416.gbw
Electron density file                           ... 059200416.scfp
The origin for moment calculation is the CENTER OF MASS  = (-0.000685,  0.000097  0.002293)

-------------
DIPOLE MOMENT
-------------
                                X             Y             Z
Electronic contribution:      2.84774      -1.86688      -2.94837
Nuclear contribution   :     -2.16488       0.61112       3.33945
                        -----------------------------------------
Total Dipole Moment    :      0.68286      -1.25576       0.39109
                        -----------------------------------------
Magnitude (a.u.)       :      1.48195
Magnitude (Debye)      :      3.76682



--------------------
Rotational spectrum 
--------------------
 
Rotational constants in cm-1:     0.027816     0.013285     0.011427 
Rotational constants in MHz :   833.903142   398.268796   342.582531 

 Dipole components along the rotational axes: 
x,y,z [a.u.] :    -0.679528    -1.273291     0.336380 
x,y,z [Debye]:    -1.727224    -3.236448     0.855009 

 

Timings for individual modules:

Sum of individual times         ...     2319.059 sec (=  38.651 min)
GTO integral calculation        ...        2.136 sec (=   0.036 min)   0.1 %
SCF iterations                  ...     1520.592 sec (=  25.343 min)  65.6 %
SCF Gradient evaluation         ...      795.372 sec (=  13.256 min)  34.3 %
Geometry relaxation             ...        0.959 sec (=   0.016 min)   0.0 %
                             ****ORCA TERMINATED NORMALLY****
TOTAL RUN TIME: 0 days 0 hours 38 minutes 40 seconds 239 msec
