
                                 *****************
                                 * O   R   C   A *
                                 *****************

           --- An Ab Initio, DFT and Semiempirical electronic structure package ---

                  #######################################################
                  #                        -***-                        #
                  #          Department of theory and spectroscopy      #
                  #               Directorship: Frank Neese             #
                  #        Max Planck Institute fuer Kohlenforschung    #
                  #                Kaiser Wilhelm Platz 1               #
                  #                 D-45470 Muelheim/Ruhr               #
                  #                      Germany                        #
                  #                                                     #
                  #                  All rights reserved                #
                  #                        -***-                        #
                  #######################################################


                         Program Version 4.2.0 -  RELEASE  -


 With contributions from (in alphabetic order):
   Daniel Aravena         : Magnetic Suceptibility
   Michael Atanasov       : Ab Initio Ligand Field Theory (pilot matlab implementation)
   Alexander A. Auer      : GIAO ZORA, VPT2
   Ute Becker             : Parallelization
   Giovanni Bistoni       : ED, misc. LED, open-shell LED, HFLED
   Martin Brehm           : Molecular dynamics
   Dmytro Bykov           : SCF Hessian
   Vijay G. Chilkuri      : MRCI spin determinant printing, contributions to CSF-ICE
   Dipayan Datta          : RHF DLPNO-CCSD density
   Achintya Kumar Dutta   : EOM-CC, STEOM-CC
   Dmitry Ganyushin       : Spin-Orbit,Spin-Spin,Magnetic field MRCI
   Miquel Garcia          : C-PCM Hessian, Gaussian charge scheme
   Yang Guo               : DLPNO-NEVPT2, CIM, IAO-localization
   Andreas Hansen         : Spin unrestricted coupled pair/coupled cluster methods
   Benjamin Helmich-Paris : CASSCF linear response (MC-RPA)
   Lee Huntington         : MR-EOM, pCC
   Robert Izsak           : Overlap fitted RIJCOSX, COSX-SCS-MP3, EOM
   Christian Kollmar      : KDIIS, OOCD, Brueckner-CCSD(T), CCSD density
   Simone Kossmann        : Meta GGA functionals, TD-DFT gradient, OOMP2, MP2 Hessian
   Martin Krupicka        : AUTO-CI
   Lucas Lang             : DCDCAS
   Dagmar Lenk            : GEPOL surface, SMD
   Dimitrios Liakos       : Extrapolation schemes; Compound Job, initial MDCI parallelization
   Dimitrios Manganas     : Further ROCIS development; embedding schemes
   Dimitrios Pantazis     : SARC Basis sets
   Taras Petrenko         : DFT Hessian,TD-DFT gradient, ASA, ECA, R-Raman, ABS, FL, XAS/XES, NRVS
   Peter Pinski           : DLPNO-MP2, DLPNO-MP2 Gradient
   Christoph Reimann      : Effective Core Potentials
   Marius Retegan         : Local ZFS, SOC
   Christoph Riplinger    : Optimizer, TS searches, QM/MM, DLPNO-CCSD(T), (RO)-DLPNO pert. Triples
   Tobias Risthaus        : Range-separated hybrids, TD-DFT gradient, RPA, STAB
   Michael Roemelt        : Original ROCIS implementation
   Masaaki Saitow         : Open-shell DLPNO-CCSD energy and density
   Barbara Sandhoefer     : DKH picture change effects
   Avijit Sen             : IP-ROCIS
   Kantharuban Sivalingam : CASSCF convergence, NEVPT2, FIC-MRCI
   Bernardo de Souza      : ESD, SOC TD-DFT
   Georgi Stoychev        : AutoAux, RI-MP2 NMR
   Willem Van den Heuvel  : Paramagnetic NMR
   Boris Wezisla          : Elementary symmetry handling
   Frank Wennmohs         : Technical directorship


 We gratefully acknowledge several colleagues who have allowed us to
 interface, adapt or use parts of their codes:
   Stefan Grimme, W. Hujo, H. Kruse,             : VdW corrections, initial TS optimization,
                  C. Bannwarth                     DFT functionals, gCP, sTDA/sTD-DF
   Ed Valeev, F. Pavosevic, A. Kumar             : LibInt (2-el integral package), F12 methods
   Garnet Chan, S. Sharma, J. Yang, R. Olivares  : DMRG
   Ulf Ekstrom                                   : XCFun DFT Library
   Mihaly Kallay                                 : mrcc  (arbitrary order and MRCC methods)
   Andreas Klamt, Michael Diedenhofen            : otool_cosmo (COSMO solvation model)
   Jiri Pittner, Ondrej Demel                    : Mk-CCSD
   Frank Weinhold                                : gennbo (NPA and NBO analysis)
   Christopher J. Cramer and Donald G. Truhlar   : smd solvation model
   Lars Goerigk                                  : TD-DFT with DH, B97 family of functionals
   V. Asgeirsson, H. Jonsson                     : NEB implementation
   FAccTs GmbH                                   : IRC, NEB, NEB-TS, Multilevel, MM, QM/MM, CI optimization
   S Lehtola, MJT Oliveira, MAL Marques          : LibXC Library


 Your calculation uses the libint2 library for the computation of 2-el integrals
 For citations please refer to: http://libint.valeyev.net

 Your ORCA version has been built with support for libXC version: 4.2.3
 For citations please refer to: https://tddft.org/programs/libxc/

 This ORCA versions uses:
   CBLAS   interface :  Fast vector & matrix operations
   LAPACKE interface :  Fast linear algebra routines
   SCALAPACK package :  Parallel linear algebra routines


Your calculation utilizes the atom-pairwise dispersion correction
with the zero-damping scheme (D30)
Cite in your paper:
S.Grimme, J.Antony, S.Ehrlich and H.Krieg, J.Chem.Phys., 132, (2010), 154104 
   

XCFun DFT library Copyright 2009-2010 Ulf Ekstrom and contributors.
See http://admol.org/xcfun for more information. This is free soft-
ware; see the source code for copying conditions. There is ABSOLUTELY
NO WARRANTY; not even for MERCHANTABILITY or FITNESS FOR A PARTICULAR
PURPOSE. For details see the documentation. Scientific users of this 
library should cite U. Ekstrom, L. Visscher, R. Bast, A. J. Thorvald-
sen and K. Ruud; J.Chem.Theor.Comp. 2010, DOI: 10.1021/ct100117s
XCFun Version 0.99 
----- Orbital basis set information -----
Your calculation utilizes the basis: def2-SVP
   F. Weigend and R. Ahlrichs, Phys. Chem. Chem. Phys. 7, 3297 (2005).

================================================================================
                                        WARNINGS
                       Please study these warnings very carefully!
================================================================================


WARNING: Geometry Optimization
  ===> : Switching off AutoStart
         For restart on a previous wavefunction, please use MOREAD

INFO   : the flag for use of LIBINT has been found!

================================================================================
                                       INPUT FILE
================================================================================
NAME = 065100039.inp
|  1> # ORCA input file
|  2> # -44.79147846
|  3> ! wB97X-D3 def2-SVP Opt
|  4> * xyz 0 1
|  5>    C        2.24850         2.75090         0.38280
|  6>    H        2.97370         1.99580         0.67500
|  7>    H        2.40150         2.98850        -0.66600
|  8>    C        0.82830         2.24360         0.59770
|  9>    H        0.69910         1.93190         1.63540
| 10>    H        0.12480         3.05430         0.39330
| 11>    C        0.48880         1.05690        -0.32400
| 12>    N        0.60180         1.51330        -1.71020
| 13>    H       -0.01710         2.30320        -1.86000
| 14>    H        0.32010         0.77250        -2.34350
| 15>    C       -0.91270         0.53320        -0.06780
| 16>    C       -1.89240         1.13200         0.65530
| 17>    S       -3.37100         0.24320         0.62780
| 18>    C       -2.66310        -0.97310        -0.39020
| 19>    C       -1.36970        -0.67550        -0.66790
| 20>    H       -0.73740        -1.30250        -1.27350
| 21>    C       -3.46240        -2.14460        -0.83630
| 22>    H       -4.33010        -1.82260        -1.41200
| 23>    H       -2.85090        -2.79660        -1.45580
| 24>    H       -3.82380        -2.71190         0.02100
| 25>    H       -1.85830         2.04150         1.22000
| 26>    C        1.47560        -0.06850        -0.06780
| 27>    C        2.52880        -0.31920        -0.93590
| 28>    C        3.42500        -1.34100        -0.67420
| 29>    C        3.28150        -2.12140         0.45950
| 30>    C        2.23750        -1.87150         1.33440
| 31>    C        1.34130        -0.85180         1.07250
| 32>    H        0.52620        -0.66420         1.75720
| 33>    H        2.12040        -2.47380         2.22370
| 34>    H        3.98050        -2.91950         0.66300
| 35>    H        4.24040        -1.52650        -1.35850
| 36>    H        2.64450         0.29820        -1.81270
| 37>    H        2.41970         3.64560         0.97700
| 38> *
| 39> 
| 40>                          ****END OF INPUT****
================================================================================

                       *****************************
                       * Geometry Optimization Run *
                       *****************************

Geometry optimization settings:
Update method            Update   .... BFGS
Choice of coordinates    CoordSys .... Z-matrix Internals
Initial Hessian          InHess   .... Almoef's Model

Convergence Tolerances:
Energy Change            TolE     ....  5.0000e-06 Eh
Max. Gradient            TolMAXG  ....  3.0000e-04 Eh/bohr
RMS Gradient             TolRMSG  ....  1.0000e-04 Eh/bohr
Max. Displacement        TolMAXD  ....  4.0000e-03 bohr
RMS Displacement         TolRMSD  ....  2.0000e-03 bohr
Strict Convergence                ....  False
------------------------------------------------------------------------------
                        ORCA OPTIMIZATION COORDINATE SETUP
------------------------------------------------------------------------------

The optimization will be done in new redundant internal coordinates
Making redundant internal coordinates   ...  (new redundants) done
Evaluating the initial hessian          ...  (Almloef) done
Evaluating the coordinates              ...  done
Calculating the B-matrix                .... done
Calculating the G-matrix                .... done
Diagonalizing the G-matrix              .... done
Small eigenvalue found = 6.826e-03
Small eigenvalue found = 1.426e-02
Small eigenvalue found = 2.084e-02
The first mode is                       ....   81
The number of degrees of freedom        ....   93

    -----------------------------------------------------------------
                    Redundant Internal Coordinates


    -----------------------------------------------------------------
         Definition                    Initial Value    Approx d2E/dq
    -----------------------------------------------------------------
      1. B(H   1,C   0)                  1.0870         0.364150   
      2. B(H   2,C   0)                  1.0862         0.365154   
      3. B(C   3,C   0)                  1.5233         0.382856   
      4. B(H   4,C   3)                  1.0912         0.358544   
      5. B(H   5,C   3)                  1.0927         0.356586   
      6. B(C   6,C   3)                  1.5405         0.359479   
      7. B(N   7,C   6)                  1.4638         0.426758   
      8. B(H   8,N   7)                  1.0146         0.425453   
      9. B(H   9,N   7)                  1.0145         0.425615   
     10. B(C  10,C   6)                  1.5179         0.390516   
     11. B(C  11,C  10)                  1.3569         0.705516   
     12. B(S  12,C  11)                  1.7254         0.491370   
     13. B(C  13,S  12)                  1.7369         0.471026   
     14. B(C  14,C  13)                  1.3559         0.708081   
     15. B(C  14,C  10)                  1.4248         0.549908   
     16. B(H  15,C  14)                  1.0769         0.377873   
     17. B(C  16,C  13)                  1.4867         0.437974   
     18. B(H  17,C  16)                  1.0900         0.360150   
     19. B(H  18,C  16)                  1.0876         0.363324   
     20. B(H  19,C  16)                  1.0897         0.360524   
     21. B(H  20,C  11)                  1.0711         0.386001   
     22. B(C  21,C   6)                  1.5185         0.389650   
     23. B(C  22,C  21)                  1.3877         0.630125   
     24. B(C  23,C  22)                  1.3841         0.638483   
     25. B(C  24,C  23)                  1.3838         0.639199   
     26. B(C  25,C  24)                  1.3849         0.636707   
     27. B(C  26,C  25)                  1.3826         0.642039   
     28. B(C  26,C  21)                  1.3899         0.624979   
     29. B(H  27,C  26)                  1.0809         0.372309   
     30. B(H  28,C  25)                  1.0804         0.372983   
     31. B(H  29,C  24)                  1.0803         0.373208   
     32. B(H  30,C  23)                  1.0805         0.372842   
     33. B(H  31,C  22)                  1.0786         0.375520   
     34. B(H  32,C   0)                  1.0876         0.363291   
     35. A(C   3,C   0,H  32)          110.0987         0.326102   
     36. A(H   1,C   0,H   2)          108.5147         0.291990   
     37. A(H   1,C   0,C   3)          110.6555         0.326229   
     38. A(H   1,C   0,H  32)          108.6380         0.291755   
     39. A(H   2,C   0,H  32)          108.9903         0.291882   
     40. A(H   2,C   0,C   3)          109.9002         0.326377   
     41. A(H   4,C   3,C   6)          108.8355         0.322051   
     42. A(H   5,C   3,C   6)          108.5262         0.321762   
     43. A(C   0,C   3,H   5)          109.0733         0.325105   
     44. A(C   0,C   3,H   4)          109.8572         0.325398   
     45. A(C   0,C   3,C   6)          112.1854         0.362488   
     46. A(H   4,C   3,H   5)          108.2765         0.290195   
     47. A(N   7,C   6,C  10)          109.7970         0.372245   
     48. A(C   3,C   6,N   7)          108.0237         0.366985   
     49. A(C  10,C   6,C  21)          108.4108         0.368775   
     50. A(C   3,C   6,C  21)          109.0717         0.363579   
     51. A(C   3,C   6,C  10)          111.6093         0.363717   
     52. A(N   7,C   6,C  21)          109.9186         0.372102   
     53. A(C   6,N   7,H   9)          110.0020         0.335883   
     54. A(C   6,N   7,H   8)          109.6014         0.335862   
     55. A(H   8,N   7,H   9)          107.8754         0.301642   
     56. A(C  11,C  10,C  14)          111.5455         0.434789   
     57. A(C   6,C  10,C  14)          121.1818         0.391463   
     58. A(C   6,C  10,C  11)          127.1796         0.409011   
     59. A(S  12,C  11,H  20)          118.2357         0.361202   
     60. A(C  10,C  11,S  12)          112.5142         0.449756   
     61. A(C  10,C  11,H  20)          129.2483         0.365047   
     62. A(C  11,S  12,C  13)           91.1920         0.441343   
     63. A(C  14,C  13,C  16)          128.6329         0.417697   
     64. A(S  12,C  13,C  14)          110.8000         0.446613   
     65. A(S  12,C  13,C  16)          120.5670         0.409768   
     66. A(C  13,C  14,H  15)          123.1930         0.363946   
     67. A(C  10,C  14,H  15)          122.8521         0.348655   
     68. A(C  10,C  14,C  13)          113.9474         0.435073   
     69. A(H  17,C  16,H  19)          107.7774         0.290899   
     70. A(C  13,C  16,H  19)          110.6386         0.333009   
     71. A(H  17,C  16,H  18)          108.8959         0.291253   
     72. A(C  13,C  16,H  18)          109.9394         0.333437   
     73. A(C  13,C  16,H  17)          110.7136         0.332952   
     74. A(H  18,C  16,H  19)          108.8150         0.291301   
     75. A(C  22,C  21,C  26)          118.9958         0.435961   
     76. A(C   6,C  21,C  26)          119.5566         0.400195   
     77. A(C   6,C  21,C  22)          121.4361         0.400773   
     78. A(C  21,C  22,H  31)          119.1134         0.356404   
     79. A(C  23,C  22,H  31)          120.4527         0.357203   
     80. A(C  21,C  22,C  23)          120.4319         0.437644   
     81. A(C  24,C  23,H  30)          120.0185         0.356837   
     82. A(C  22,C  23,H  30)          119.7102         0.356769   
     83. A(C  22,C  23,C  24)          120.2712         0.438774   
     84. A(C  25,C  24,H  29)          120.1394         0.356659   
     85. A(C  23,C  24,H  29)          120.2572         0.356896   
     86. A(C  23,C  24,C  25)          119.6032         0.438554   
     87. A(C  26,C  25,H  28)          119.7890         0.357128   
     88. A(C  24,C  25,H  28)          120.0736         0.356623   
     89. A(C  24,C  25,C  26)          120.1374         0.438904   
     90. A(C  25,C  26,H  27)          119.7890         0.357019   
     91. A(C  21,C  26,H  27)          119.6521         0.355390   
     92. A(C  21,C  26,C  25)          120.5583         0.437435   
     93. D(H   5,C   3,C   0,H   2)    -65.8584         0.011673   
     94. D(H   4,C   3,C   0,H   1)     55.7815         0.011673   
     95. D(H   4,C   3,C   0,H   2)    175.6084         0.011673   
     96. D(C   6,C   3,C   0,H   1)    -65.4154         0.011673   
     97. D(H   5,C   3,C   0,H  32)     54.2064         0.011673   
     98. D(C   6,C   3,C   0,H  32)    174.4762         0.011673   
     99. D(H   5,C   3,C   0,H   1)    174.3148         0.011673   
    100. D(C   6,C   3,C   0,H   2)     54.4115         0.011673   
    101. D(H   4,C   3,C   0,H  32)    -64.3268         0.011673   
    102. D(C  10,C   6,C   3,H   4)     56.3735         0.010370   
    103. D(C  10,C   6,C   3,C   0)    178.1561         0.010370   
    104. D(N   7,C   6,C   3,H   5)     59.5387         0.010370   
    105. D(N   7,C   6,C   3,H   4)    177.1692         0.010370   
    106. D(N   7,C   6,C   3,C   0)    -61.0482         0.010370   
    107. D(C  21,C   6,C   3,C   0)     58.3953         0.010370   
    108. D(C  21,C   6,C   3,H   4)    -63.3873         0.010370   
    109. D(C  21,C   6,C   3,H   5)    178.9822         0.010370   
    110. D(C  10,C   6,C   3,H   5)    -61.2569         0.010370   
    111. D(H   9,N   7,C   6,C  21)     65.1024         0.015527   
    112. D(H   9,N   7,C   6,C  10)    -54.0715         0.015527   
    113. D(H   9,N   7,C   6,C   3)   -175.9911         0.015527   
    114. D(H   8,N   7,C   6,C  21)   -176.4488         0.015527   
    115. D(H   8,N   7,C   6,C   3)    -57.5423         0.015527   
    116. D(H   8,N   7,C   6,C  10)     64.3773         0.015527   
    117. D(C  14,C  10,C   6,C  21)    -50.8271         0.011344   
    118. D(C  14,C  10,C   6,C   3)   -170.9770         0.011344   
    119. D(C  11,C  10,C   6,C  21)    132.9891         0.011344   
    120. D(C  14,C  10,C   6,N   7)     69.2680         0.011344   
    121. D(C  11,C  10,C   6,C   3)     12.8392         0.011344   
    122. D(C  11,C  10,C   6,N   7)   -106.9158         0.011344   
    123. D(S  12,C  11,C  10,C   6)    176.7935         0.035104   
    124. D(H  20,C  11,C  10,C  14)    179.7881         0.035104   
    125. D(H  20,C  11,C  10,C   6)     -3.7216         0.035104   
    126. D(S  12,C  11,C  10,C  14)      0.3032         0.035104   
    127. D(C  13,S  12,C  11,H  20)   -179.7187         0.005073   
    128. D(C  13,S  12,C  11,C  10)     -0.1715         0.005073   
    129. D(C  16,C  13,S  12,C  11)    179.8993         0.004770   
    130. D(C  14,C  13,S  12,C  11)     -0.0134         0.004770   
    131. D(H  15,C  14,C  13,C  16)     -0.6875         0.035381   
    132. D(H  15,C  14,C  13,S  12)    179.2162         0.035381   
    133. D(C  10,C  14,C  13,C  16)   -179.7153         0.035381   
    134. D(C  10,C  14,C  13,S  12)      0.1884         0.035381   
    135. D(H  15,C  14,C  10,C  11)   -179.3521         0.020687   
    136. D(H  15,C  14,C  10,C   6)      3.9162         0.020687   
    137. D(C  13,C  14,C  10,C  11)     -0.3206         0.020687   
    138. D(C  13,C  14,C  10,C   6)   -177.0523         0.020687   
    139. D(H  19,C  16,C  13,C  14)    120.5608         0.014156   
    140. D(H  19,C  16,C  13,S  12)    -59.3347         0.014156   
    141. D(H  18,C  16,C  13,C  14)      0.3459         0.014156   
    142. D(H  18,C  16,C  13,S  12)   -179.5496         0.014156   
    143. D(H  17,C  16,C  13,C  14)   -120.0178         0.014156   
    144. D(H  17,C  16,C  13,S  12)     60.0867         0.014156   
    145. D(C  26,C  21,C   6,C  10)    -45.5567         0.011297   
    146. D(C  26,C  21,C   6,N   7)   -165.5759         0.011297   
    147. D(C  26,C  21,C   6,C   3)     76.1630         0.011297   
    148. D(C  22,C  21,C   6,C  10)    135.6893         0.011297   
    149. D(C  22,C  21,C   6,N   7)     15.6701         0.011297   
    150. D(C  22,C  21,C   6,C   3)   -102.5910         0.011297   
    151. D(H  31,C  22,C  21,C  26)   -178.9768         0.027531   
    152. D(H  31,C  22,C  21,C   6)     -0.2159         0.027531   
    153. D(C  23,C  22,C  21,C  26)      0.5040         0.027531   
    154. D(C  23,C  22,C  21,C   6)    179.2649         0.027531   
    155. D(C  24,C  23,C  22,C  21)     -0.1848         0.028315   
    156. D(H  30,C  23,C  22,H  31)     -0.5755         0.028315   
    157. D(H  30,C  23,C  22,C  21)    179.9507         0.028315   
    158. D(C  24,C  23,C  22,H  31)    179.2890         0.028315   
    159. D(H  29,C  24,C  23,H  30)     -0.1997         0.028383   
    160. D(H  29,C  24,C  23,C  22)    179.9362         0.028383   
    161. D(C  25,C  24,C  23,H  30)    179.6540         0.028383   
    162. D(C  25,C  24,C  23,C  22)     -0.2102         0.028383   
    163. D(H  28,C  25,C  24,H  29)      0.0765         0.028147   
    164. D(H  28,C  25,C  24,C  23)   -179.7773         0.028147   
    165. D(C  26,C  25,C  24,H  29)   -179.8673         0.028147   
    166. D(C  26,C  25,C  24,C  23)      0.2789         0.028147   
    167. D(H  27,C  26,C  25,H  28)     -0.1865         0.028652   
    168. D(H  27,C  26,C  25,C  24)    179.7575         0.028652   
    169. D(C  21,C  26,C  25,H  28)   -179.8979         0.028652   
    170. D(C  21,C  26,C  25,C  24)      0.0461         0.028652   
    171. D(H  27,C  26,C  21,C  22)    179.8528         0.027055   
    172. D(H  27,C  26,C  21,C   6)      1.0682         0.027055   
    173. D(C  25,C  26,C  21,C  22)     -0.4354         0.027055   
    174. D(C  25,C  26,C  21,C   6)   -179.2199         0.027055   
    -----------------------------------------------------------------

Number of atoms                         .... 33
Number of degrees of freedom            .... 174

         *************************************************************
         *                GEOMETRY OPTIMIZATION CYCLE   1            *
         *************************************************************
---------------------------------
CARTESIAN COORDINATES (ANGSTROEM)
---------------------------------
  C      2.248500    2.750900    0.382800
  H      2.973700    1.995800    0.675000
  H      2.401500    2.988500   -0.666000
  C      0.828300    2.243600    0.597700
  H      0.699100    1.931900    1.635400
  H      0.124800    3.054300    0.393300
  C      0.488800    1.056900   -0.324000
  N      0.601800    1.513300   -1.710200
  H     -0.017100    2.303200   -1.860000
  H      0.320100    0.772500   -2.343500
  C     -0.912700    0.533200   -0.067800
  C     -1.892400    1.132000    0.655300
  S     -3.371000    0.243200    0.627800
  C     -2.663100   -0.973100   -0.390200
  C     -1.369700   -0.675500   -0.667900
  H     -0.737400   -1.302500   -1.273500
  C     -3.462400   -2.144600   -0.836300
  H     -4.330100   -1.822600   -1.412000
  H     -2.850900   -2.796600   -1.455800
  H     -3.823800   -2.711900    0.021000
  H     -1.858300    2.041500    1.220000
  C      1.475600   -0.068500   -0.067800
  C      2.528800   -0.319200   -0.935900
  C      3.425000   -1.341000   -0.674200
  C      3.281500   -2.121400    0.459500
  C      2.237500   -1.871500    1.334400
  C      1.341300   -0.851800    1.072500
  H      0.526200   -0.664200    1.757200
  H      2.120400   -2.473800    2.223700
  H      3.980500   -2.919500    0.663000
  H      4.240400   -1.526500   -1.358500
  H      2.644500    0.298200   -1.812700
  H      2.419700    3.645600    0.977000

----------------------------
CARTESIAN COORDINATES (A.U.)
----------------------------
  NO LB      ZA    FRAG     MASS         X           Y           Z
   0 C     6.0000    0    12.011    4.249049    5.198448    0.723387
   1 H     1.0000    0     1.008    5.619479    3.771515    1.275565
   2 H     1.0000    0     1.008    4.538177    5.647447   -1.258558
   3 C     6.0000    0    12.011    1.565260    4.239790    1.129489
   4 H     1.0000    0     1.008    1.321108    3.650762    3.090458
   5 H     1.0000    0     1.008    0.235838    5.771791    0.743229
   6 C     6.0000    0    12.011    0.923698    1.997252   -0.612271
   7 N     7.0000    0    14.007    1.137237    2.859723   -3.231810
   8 H     1.0000    0     1.008   -0.032314    4.352417   -3.514891
   9 H     1.0000    0     1.008    0.604901    1.459813   -4.428573
  10 C     6.0000    0    12.011   -1.724753    1.007602   -0.128123
  11 C     6.0000    0    12.011   -3.576118    2.139170    1.238338
  12 S    16.0000    0    32.060   -6.370267    0.459581    1.186370
  13 C     6.0000    0    12.011   -5.032530   -1.838893   -0.737371
  14 C     6.0000    0    12.011   -2.588358   -1.276510   -1.262148
  15 H     1.0000    0     1.008   -1.393484   -2.461368   -2.406566
  16 C     6.0000    0    12.011   -6.542988   -4.052707   -1.580378
  17 H     1.0000    0     1.008   -8.182703   -3.444215   -2.668293
  18 H     1.0000    0     1.008   -5.387420   -5.284808   -2.751063
  19 H     1.0000    0     1.008   -7.225935   -5.124748    0.039684
  20 H     1.0000    0     1.008   -3.511678    3.857876    2.305466
  21 C     6.0000    0    12.011    2.788480   -0.129446   -0.128123
  22 C     6.0000    0    12.011    4.778739   -0.603201   -1.768595
  23 C     6.0000    0    12.011    6.472312   -2.534123   -1.274053
  24 C     6.0000    0    12.011    6.201136   -4.008865    0.868329
  25 C     6.0000    0    12.011    4.228262   -3.536622    2.521651
  26 C     6.0000    0    12.011    2.534690   -1.609669    2.026731
  27 H     1.0000    0     1.008    0.994374   -1.255156    3.320627
  28 H     1.0000    0     1.008    4.006975   -4.674805    4.202184
  29 H     1.0000    0     1.008    7.522055   -5.517055    1.252888
  30 H     1.0000    0     1.008    8.013195   -2.884667   -2.567193
  31 H     1.0000    0     1.008    4.997381    0.563516   -3.425507
  32 H     1.0000    0     1.008    4.572570    6.889186    1.846262

--------------------------------
INTERNAL COORDINATES (ANGSTROEM)
--------------------------------
 C      0   0   0     0.000000000000     0.00000000     0.00000000
 H      1   0   0     1.086955330269     0.00000000     0.00000000
 H      1   2   0     1.086206333990   108.51470337     0.00000000
 C      1   2   3     1.523319841662   110.65547739   120.65491524
 H      4   1   2     1.091178637987   109.85723639    55.78151906
 H      4   1   2     1.092669254624   109.07333054   174.31475193
 C      4   1   2     1.540470067869   112.18537736   294.58458732
 N      7   4   1     1.463769244109   108.02369954   298.95176132
 H      8   7   4     1.014603006106   109.60136401   302.45768366
 H      8   7   4     1.014499098077   110.00204747   184.00887947
 C      7   4   1     1.517927000880   111.60925271   178.15610810
 C     11   7   4     1.356925620659   127.17957012    12.83916309
 S     12  11   7     1.725392607495   112.51419913   176.79351016
 C     13  12  11     1.736903019745    91.19197653   359.82849988
 C     14  13  12     1.355937539122   110.80004703     0.00000000
 H     15  14  13     1.076886089612   123.19297786   179.21619824
 C     14  13  12     1.486707082784   120.56702086   179.89929531
 H     17  14  13     1.089962283751   110.71358619    60.08669449
 H     17  14  13     1.087573675665   109.93935332   180.45039810
 H     17  14  13     1.089680017253   110.63860594   300.66528972
 H     12  11   7     1.071092503008   129.24826884   356.27835971
 C      7   4   1     1.518531474814   109.07171895    58.39527800
 C     22   7   4     1.387688127787   121.43605926   257.40896487
 C     23  22   7     1.384101358283   120.43188501   179.26488566
 C     24  23  22     1.383796263906   120.27118934   359.81522824
 C     25  24  23     1.384859566888   119.60323259   359.78983554
 C     26  25  24     1.382589649896   120.13738584     0.27889987
 H     27  26  25     1.080923614322   119.78899279   179.75747637
 H     26  25  24     1.080431483251   120.07357171   180.22266704
 H     25  24  23     1.080267031803   120.25720352   179.93620156
 H     24  23  22     1.080534080906   119.71021502   179.95067548
 H     23  22   7     1.078585875116   119.11336862   359.78407431
 H      1   2   3     1.087598809304   108.63804760   241.63348814

---------------------------
INTERNAL COORDINATES (A.U.)
---------------------------
 C      0   0   0     0.000000000000     0.00000000     0.00000000
 H      1   0   0     2.054047894014     0.00000000     0.00000000
 H      1   2   0     2.052632496172   108.51470337     0.00000000
 C      1   2   3     2.878657315109   110.65547739   120.65491524
 H      4   1   2     2.062028788981   109.85723639    55.78151906
 H      4   1   2     2.064845646195   109.07333054   174.31475193
 C      4   1   2     2.911066545775   112.18537736   294.58458732
 N      7   4   1     2.766122994623   108.02369954   298.95176132
 H      8   7   4     1.917321816194   109.60136401   302.45768366
 H      8   7   4     1.917125458477   110.00204747   184.00887947
 C      7   4   1     2.868466322947   111.60925271   178.15610810
 C     11   7   4     2.564217807146   127.17957012    12.83916309
 S     12  11   7     3.260519501659   112.51419913   176.79351016
 C     13  12  11     3.282271028499    91.19197653   359.82849988
 C     14  13  12     2.562350603644   110.80004703     0.00000000
 H     15  14  13     2.035019786796   123.19297786   179.21619824
 C     14  13  12     2.809469227823   120.56702086   179.89929531
 H     17  14  13     2.059730212593   110.71358619    60.08669449
 H     17  14  13     2.055216397469   109.93935332   180.45039810
 H     17  14  13     2.059196806214   110.63860594   300.66528972
 H     12  11   7     2.024071494781   129.24826884   356.27835971
 C      7   4   1     2.869608613138   109.07171895    58.39527800
 C     22   7   4     2.622350520811   121.43605926   257.40896487
 C     23  22   7     2.615572508743   120.43188501   179.26488566
 C     24  23  22     2.614995963926   120.27118934   359.81522824
 C     25  24  23     2.617005315358   119.60323259   359.78983554
 C     26  25  24     2.612715793898   120.13738584     0.27889987
 H     27  26  25     2.042649602758   119.78899279   179.75747637
 H     26  25  24     2.041719609811   120.07357171   180.22266704
 H     25  24  23     2.041408841611   120.25720352   179.93620156
 H     24  23  22     2.041913491281   119.71021502   179.95067548
 H     23  22   7     2.038231915885   119.11336862   359.78407431
 H      1   2   3     2.055263893164   108.63804760   241.63348814

---------------------
BASIS SET INFORMATION
---------------------
There are 4 groups of distinct atoms

 Group   1 Type C   : 7s4p1d contracted to 3s2p1d pattern {511/31/1}
 Group   2 Type H   : 4s1p contracted to 2s1p pattern {31/1}
 Group   3 Type N   : 7s4p1d contracted to 3s2p1d pattern {511/31/1}
 Group   4 Type S   : 10s7p1d contracted to 4s3p1d pattern {5311/511/1}

Atom   0C    basis set group =>   1
Atom   1H    basis set group =>   2
Atom   2H    basis set group =>   2
Atom   3C    basis set group =>   1
Atom   4H    basis set group =>   2
Atom   5H    basis set group =>   2
Atom   6C    basis set group =>   1
Atom   7N    basis set group =>   3
Atom   8H    basis set group =>   2
Atom   9H    basis set group =>   2
Atom  10C    basis set group =>   1
Atom  11C    basis set group =>   1
Atom  12S    basis set group =>   4
Atom  13C    basis set group =>   1
Atom  14C    basis set group =>   1
Atom  15H    basis set group =>   2
Atom  16C    basis set group =>   1
Atom  17H    basis set group =>   2
Atom  18H    basis set group =>   2
Atom  19H    basis set group =>   2
Atom  20H    basis set group =>   2
Atom  21C    basis set group =>   1
Atom  22C    basis set group =>   1
Atom  23C    basis set group =>   1
Atom  24C    basis set group =>   1
Atom  25C    basis set group =>   1
Atom  26C    basis set group =>   1
Atom  27H    basis set group =>   2
Atom  28H    basis set group =>   2
Atom  29H    basis set group =>   2
Atom  30H    basis set group =>   2
Atom  31H    basis set group =>   2
Atom  32H    basis set group =>   2
------------------------------------------------------------------------------
                           ORCA GTO INTEGRAL CALCULATION
------------------------------------------------------------------------------

                         BASIS SET STATISTICS AND STARTUP INFO

 # of primitive gaussian shells          ...  283
 # of primitive gaussian functions       ...  515
 # of contracted shells                  ...  149
 # of contracted basis functions         ...  313
 Highest angular momentum                ...    2
 Maximum contraction depth               ...    5
 Integral package used                   ... LIBINT
 Integral threshhold            Thresh   ...  2.500e-11
 Primitive cut-off              TCut     ...  2.500e-12


------------------------------ INTEGRAL EVALUATION ----------------------------


 * One electron integrals 
 Pre-screening matrix                    ... done
 Shell pair data                         ... done (   0.003 sec)

-------------------------------------------------------------------------------
                                 ORCA SCF
-------------------------------------------------------------------------------

------------
SCF SETTINGS
------------
Hamiltonian:
 Density Functional     Method          .... DFT(GTOs)
 Exchange Functional    Exchange        .... WB97X-D3
 Correlation Functional Correlation     .... WB97X-D3
 Gradients option       PostSCFGGA      .... off
 Hybrid DFT is turned on
   Fraction HF Exchange ScalHFX         ....  0.195728
   Scaling of DF-GGA-X  ScalDFX         ....  0.000000
   Scaling of DF-GGA-C  ScalDFC         ....  1.000000
   Scaling of DF-LDA-C  ScalLDAC        ....  1.000000
   Perturbative correction              ....  0.000000
   Density functional embedding theory  .... OFF
 Long-range corrected/Screened/Range-Separated Hybrid DFT is turned on
   Amount of maximum screened exact exchange              ....  0.804272
   Range separation parameter mu (erf(mu*r12)/r12)        ....  0.250000


General Settings:
 Integral files         IntName         .... 065100039
 Hartree-Fock type      HFTyp           .... RHF
 Total Charge           Charge          ....    0
 Multiplicity           Mult            ....    1
 Number of Electrons    NEL             ....  124
 Basis Dimension        Dim             ....  313
 Nuclear Repulsion      ENuc            ....   1200.2529339649 Eh

Convergence Acceleration:
 DIIS                   CNVDIIS         .... on
   Start iteration      DIISMaxIt       ....    12
   Startup error        DIISStart       ....  0.200000
   # of expansion vecs  DIISMaxEq       ....     5
   Bias factor          DIISBfac        ....   1.050
   Max. coefficient     DIISMaxC        ....  10.000
 Newton-Raphson         CNVNR           .... off
 SOSCF                  CNVSOSCF        .... on
   Start iteration      SOSCFMaxIt      ....   150
   Startup grad/error   SOSCFStart      ....  0.003300
 Level Shifting         CNVShift        .... on
   Level shift para.    LevelShift      ....    0.2500
   Turn off err/grad.   ShiftErr        ....    0.0010
 Zerner damping         CNVZerner       .... off
 Static damping         CNVDamp         .... on
   Fraction old density DampFac         ....    0.7000
   Max. Damping (<1)    DampMax         ....    0.9800
   Min. Damping (>=0)   DampMin         ....    0.0000
   Turn off err/grad.   DampErr         ....    0.1000
 Fernandez-Rico         CNVRico         .... off

SCF Procedure:
 Maximum # iterations   MaxIter         ....   125
 SCF integral mode      SCFMode         .... Direct
   Integral package                     .... LIBINT
 Reset frequency        DirectResetFreq ....    20
 Integral Threshold     Thresh          ....  2.500e-11 Eh
 Primitive CutOff       TCut            ....  2.500e-12 Eh

Convergence Tolerance:
 Convergence Check Mode ConvCheckMode   .... Total+1el-Energy
 Convergence forced     ConvForced      .... 0
 Energy Change          TolE            ....  1.000e-08 Eh
 1-El. energy change                    ....  1.000e-05 Eh
 Orbital Gradient       TolG            ....  1.000e-05
 Orbital Rotation angle TolX            ....  1.000e-05
 DIIS Error             TolErr          ....  5.000e-07


Diagonalization of the overlap matrix:
Smallest eigenvalue                        ... 2.499e-04
Time for diagonalization                   ...    0.012 sec
Threshold for overlap eigenvalues          ... 1.000e-08
Number of eigenvalues below threshold      ... 0
Time for construction of square roots      ...    0.005 sec
Total time needed                          ...    0.018 sec

-------------------
DFT GRID GENERATION
-------------------

General Integration Accuracy     IntAcc      ...  4.340
Radial Grid Type                 RadialGrid  ... Gauss-Chebyshev
Angular Grid (max. acc.)         AngularGrid ... Lebedev-110
Angular grid pruning method      GridPruning ... 3 (G Style)
Weight generation scheme         WeightScheme... Becke
Basis function cutoff            BFCut       ...    1.0000e-11
Integration weight cutoff        WCut        ...    1.0000e-14
Grids for H and He will be reduced by one unit

# of grid points (after initial pruning)     ...  40190 (   0.0 sec)
# of grid points (after weights+screening)   ...  35807 (   0.2 sec)
nearest neighbour list constructed           ...    0.0 sec
Grid point re-assignment to atoms done       ...    0.0 sec
Grid point division into batches done        ...    0.0 sec
Reduced shell lists constructed in    0.4 sec

Total number of grid points                  ...    35807
Total number of batches                      ...      576
Average number of points per batch           ...       62
Average number of grid points per atom       ...     1085
Average number of shells per batch           ...    87.62 (58.80%)
Average number of basis functions per batch  ...   174.69 (55.81%)
Average number of large shells per batch     ...    60.51 (69.06%)
Average number of large basis fcns per batch ...   120.05 (68.72%)
Maximum spatial batch extension              ...  22.63, 20.59, 20.62 au
Average spatial batch extension              ...   3.51,  3.47,  3.63 au

Time for grid setup =    0.623 sec

------------------------------
INITIAL GUESS: MODEL POTENTIAL
------------------------------
Loading Hartree-Fock densities                     ... done
Calculating cut-offs                               ... done
Setting up the integral package                    ... done
Initializing the effective Hamiltonian             ... done
Starting the Coulomb interaction                   ... done (   0.5 sec)
Reading the grid                                   ... done
Mapping shells                                     ... done
Starting the XC term evaluation                    ... done (   0.5 sec)
  promolecular density results
     # of electrons  =    124.007448220
     EX              =   -108.144970665
     EC              =     -4.225567850
     EX+EC           =   -112.370538515
Transforming the Hamiltonian                       ... done (   0.0 sec)
Diagonalizing the Hamiltonian                      ... done (   0.0 sec)
Back transforming the eigenvectors                 ... done (   0.0 sec)
Now organizing SCF variables                       ... done
                      ------------------
                      INITIAL GUESS DONE (   1.8 sec)
                      ------------------
--------------
SCF ITERATIONS
--------------
ITER       Energy         Delta-E        Max-DP      RMS-DP      [F,P]     Damp
               ***  Starting incremental Fock matrix formation  ***
  0   -995.5201707980   0.000000000000 0.11056054  0.00177942  0.2197194 0.7000
  1   -995.6932078390  -0.173037041033 0.07304443  0.00131755  0.1178521 0.7000
                               ***Turning on DIIS***
  2   -995.7806803479  -0.087472508886 0.13391020  0.00264594  0.0519769 0.0000
  3   -995.9179341774  -0.137253829489 0.04384650  0.00087856  0.0559053 0.0000
  4   -995.9419121818  -0.023978004420 0.00665900  0.00017397  0.0064586 0.0000
  5   -995.9425774858  -0.000665304045 0.00323309  0.00007938  0.0034135 0.0000
                      *** Initiating the SOSCF procedure ***
                           *** Shutting down DIIS ***
                      *** Re-Reading the Fockian *** 
                      *** Removing any level shift *** 
ITER      Energy       Delta-E        Grad      Rot      Max-DP    RMS-DP
  6   -995.94268194  -0.0001044538  0.001086  0.001086  0.001761  0.000038
               *** Restarting incremental Fock matrix formation ***
  7   -995.94270877  -0.0000268308  0.000572  0.001370  0.001348  0.000023
  8   -995.94271937  -0.0000105957  0.000252  0.001411  0.001587  0.000026
  9   -995.94272199  -0.0000026206  0.000091  0.000225  0.000288  0.000007
 10   -995.94272268  -0.0000006945  0.000040  0.000086  0.000226  0.000003
 11   -995.94272274  -0.0000000583  0.000019  0.000028  0.000093  0.000001
 12   -995.94272276  -0.0000000165  0.000005  0.000013  0.000021  0.000000
                  ***Gradient check signals convergence***
              ***Rediagonalizing the Fockian in SOSCF/NRSCF***

               *****************************************************
               *                     SUCCESS                       *
               *           SCF CONVERGED AFTER  13 CYCLES          *
               *****************************************************

Setting up the final grid:

General Integration Accuracy     IntAcc      ...  4.670
Radial Grid Type                 RadialGrid  ... Gauss-Chebyshev
Angular Grid (max. acc.)         AngularGrid ... Lebedev-302
Angular grid pruning method      GridPruning ... 3 (G Style)
Weight generation scheme         WeightScheme... Becke
Basis function cutoff            BFCut       ...    1.0000e-11
Integration weight cutoff        WCut        ...    1.0000e-14
Grids for H and He will be reduced by one unit

# of grid points (after initial pruning)     ... 157724 (   0.1 sec)
# of grid points (after weights+screening)   ... 137596 (   1.0 sec)
nearest neighbour list constructed           ...    0.0 sec
Grid point re-assignment to atoms done       ...    0.0 sec
Grid point division into batches done        ...    0.4 sec
Reduced shell lists constructed in    1.6 sec

Total number of grid points                  ...   137596
Total number of batches                      ...     2166
Average number of points per batch           ...       63
Average number of grid points per atom       ...     4170
Average number of shells per batch           ...    80.10 (53.76%)
Average number of basis functions per batch  ...   158.34 (50.59%)
Average number of large shells per batch     ...    54.32 (67.83%)
Average number of large basis fcns per batch ...   106.78 (67.44%)
Maximum spatial batch extension              ...  18.27, 19.31, 20.91 au
Average spatial batch extension              ...   2.27,  2.28,  2.33 au

Final grid set up in    2.6 sec
Final integration                            ... done (   2.7 sec)
Change in XC energy                          ...     0.005555159
Integrated number of electrons               ...   124.000279822
Previous integrated no of electrons          ...   124.005623184

----------------
TOTAL SCF ENERGY
----------------

Total Energy       :         -995.93716759 Eh          -27100.82811 eV

Components:
Nuclear Repulsion  :         1200.25293396 Eh           32660.54276 eV
Electronic Energy  :        -2196.19010156 Eh          -59761.37087 eV
One Electron Energy:        -3741.61299287 Eh         -101814.46568 eV
Two Electron Energy:         1545.42289132 Eh           42053.09481 eV

Virial components:
Potential Energy   :        -1984.57661799 Eh          -54003.07524 eV
Kinetic Energy     :          988.63945040 Eh           26902.24713 eV
Virial Ratio       :            2.00738158


DFT components:
N(Alpha)           :       62.000139910830 electrons
N(Beta)            :       62.000139910830 electrons
N(Total)           :      124.000279821661 electrons
E(XC)              :      -79.974457011417 Eh       
DFET-embed. en.    :        0.000000000000 Eh       

---------------
SCF CONVERGENCE
---------------

  Last Energy change         ...    4.1330e-09  Tolerance :   1.0000e-08
  Last MAX-Density change    ...    9.1719e-06  Tolerance :   1.0000e-07
  Last RMS-Density change    ...    1.3057e-07  Tolerance :   5.0000e-09
  Last Orbital Gradient      ...    1.7091e-06  Tolerance :   1.0000e-05
  Last Orbital Rotation      ...    4.5810e-06  Tolerance :   1.0000e-05

             **** THE GBW FILE WAS UPDATED (065100039.gbw) ****
             **** DENSITY FILE WAS UPDATED (065100039.scfp) ****
             **** ENERGY FILE WAS UPDATED (065100039.en.tmp) ****
             **** THE GBW FILE WAS UPDATED (065100039.gbw) ****
             **** DENSITY FILE WAS UPDATED (065100039.scfp) ****
----------------
ORBITAL ENERGIES
----------------

  NO   OCC          E(Eh)            E(eV) 
   0   2.0000     -88.956859     -2420.6392 
   1   2.0000     -14.410960      -392.1422 
   2   2.0000     -10.328217      -281.0451 
   3   2.0000     -10.317371      -280.7499 
   4   2.0000     -10.304987      -280.4130 
   5   2.0000     -10.295629      -280.1583 
   6   2.0000     -10.289637      -279.9953 
   7   2.0000     -10.289189      -279.9831 
   8   2.0000     -10.285066      -279.8709 
   9   2.0000     -10.284242      -279.8485 
  10   2.0000     -10.283537      -279.8293 
  11   2.0000     -10.282905      -279.8121 
  12   2.0000     -10.282699      -279.8065 
  13   2.0000     -10.282244      -279.7941 
  14   2.0000     -10.279212      -279.7116 
  15   2.0000     -10.263087      -279.2728 
  16   2.0000      -8.073124      -219.6809 
  17   2.0000      -6.031523      -164.1261 
  18   2.0000      -6.027549      -164.0180 
  19   2.0000      -6.023847      -163.9172 
  20   2.0000      -1.023415       -27.8485 
  21   2.0000      -0.991565       -26.9819 
  22   2.0000      -0.963803       -26.2264 
  23   2.0000      -0.891809       -24.2673 
  24   2.0000      -0.873413       -23.7668 
  25   2.0000      -0.856867       -23.3165 
  26   2.0000      -0.851466       -23.1696 
  27   2.0000      -0.840631       -22.8747 
  28   2.0000      -0.794757       -21.6264 
  29   2.0000      -0.756849       -20.5949 
  30   2.0000      -0.715899       -19.4806 
  31   2.0000      -0.705753       -19.2045 
  32   2.0000      -0.677831       -18.4447 
  33   2.0000      -0.647517       -17.6198 
  34   2.0000      -0.638280       -17.3685 
  35   2.0000      -0.620446       -16.8832 
  36   2.0000      -0.604356       -16.4454 
  37   2.0000      -0.582106       -15.8399 
  38   2.0000      -0.566980       -15.4283 
  39   2.0000      -0.541734       -14.7413 
  40   2.0000      -0.539068       -14.6688 
  41   2.0000      -0.534701       -14.5500 
  42   2.0000      -0.529259       -14.4019 
  43   2.0000      -0.517197       -14.0736 
  44   2.0000      -0.510942       -13.9034 
  45   2.0000      -0.503502       -13.7010 
  46   2.0000      -0.497571       -13.5396 
  47   2.0000      -0.484311       -13.1788 
  48   2.0000      -0.469458       -12.7746 
  49   2.0000      -0.466034       -12.6814 
  50   2.0000      -0.461764       -12.5652 
  51   2.0000      -0.449425       -12.2295 
  52   2.0000      -0.438348       -11.9281 
  53   2.0000      -0.433761       -11.8032 
  54   2.0000      -0.429159       -11.6780 
  55   2.0000      -0.424507       -11.5514 
  56   2.0000      -0.411019       -11.1844 
  57   2.0000      -0.355638        -9.6774 
  58   2.0000      -0.337110        -9.1732 
  59   2.0000      -0.327580        -8.9139 
  60   2.0000      -0.321575        -8.7505 
  61   2.0000      -0.308725        -8.4008 
  62   0.0000       0.061826         1.6824 
  63   0.0000       0.072615         1.9759 
  64   0.0000       0.082207         2.2370 
  65   0.0000       0.126492         3.4420 
  66   0.0000       0.142388         3.8746 
  67   0.0000       0.144122         3.9218 
  68   0.0000       0.159807         4.3486 
  69   0.0000       0.165868         4.5135 
  70   0.0000       0.177464         4.8290 
  71   0.0000       0.187335         5.0976 
  72   0.0000       0.189825         5.1654 
  73   0.0000       0.195382         5.3166 
  74   0.0000       0.202942         5.5223 
  75   0.0000       0.215337         5.8596 
  76   0.0000       0.222408         6.0520 
  77   0.0000       0.228066         6.2060 
  78   0.0000       0.231417         6.2972 
  79   0.0000       0.240519         6.5449 
  80   0.0000       0.244078         6.6417 
  81   0.0000       0.252438         6.8692 
  82   0.0000       0.256808         6.9881 
  83   0.0000       0.267333         7.2745 
  84   0.0000       0.275456         7.4955 
  85   0.0000       0.281782         7.6677 
  86   0.0000       0.306390         8.3373 
  87   0.0000       0.320655         8.7255 
  88   0.0000       0.331135         9.0106 
  89   0.0000       0.350148         9.5280 
  90   0.0000       0.354004         9.6329 
  91   0.0000       0.367468         9.9993 
  92   0.0000       0.386103        10.5064 
  93   0.0000       0.395165        10.7530 
  94   0.0000       0.404698        11.0124 
  95   0.0000       0.414052        11.2669 
  96   0.0000       0.424040        11.5387 
  97   0.0000       0.437946        11.9171 
  98   0.0000       0.454066        12.3558 
  99   0.0000       0.460947        12.5430 
 100   0.0000       0.471764        12.8373 
 101   0.0000       0.482959        13.1420 
 102   0.0000       0.507512        13.8101 
 103   0.0000       0.513684        13.9780 
 104   0.0000       0.522848        14.2274 
 105   0.0000       0.527022        14.3410 
 106   0.0000       0.534582        14.5467 
 107   0.0000       0.550177        14.9711 
 108   0.0000       0.556862        15.1530 
 109   0.0000       0.565446        15.3866 
 110   0.0000       0.567137        15.4326 
 111   0.0000       0.576910        15.6985 
 112   0.0000       0.585609        15.9352 
 113   0.0000       0.595927        16.2160 
 114   0.0000       0.600954        16.3528 
 115   0.0000       0.607260        16.5244 
 116   0.0000       0.617455        16.8018 
 117   0.0000       0.627378        17.0718 
 118   0.0000       0.629969        17.1423 
 119   0.0000       0.649241        17.6667 
 120   0.0000       0.664950        18.0942 
 121   0.0000       0.669571        18.2200 
 122   0.0000       0.674275        18.3480 
 123   0.0000       0.679107        18.4794 
 124   0.0000       0.700980        19.0746 
 125   0.0000       0.708988        19.2926 
 126   0.0000       0.712920        19.3995 
 127   0.0000       0.726260        19.7625 
 128   0.0000       0.738483        20.0952 
 129   0.0000       0.745585        20.2884 
 130   0.0000       0.750638        20.4259 
 131   0.0000       0.752798        20.4847 
 132   0.0000       0.759252        20.6603 
 133   0.0000       0.762082        20.7373 
 134   0.0000       0.766557        20.8591 
 135   0.0000       0.767772        20.8921 
 136   0.0000       0.772142        21.0111 
 137   0.0000       0.778117        21.1737 
 138   0.0000       0.780807        21.2468 
 139   0.0000       0.786573        21.4037 
 140   0.0000       0.790479        21.5100 
 141   0.0000       0.797300        21.6956 
 142   0.0000       0.803645        21.8683 
 143   0.0000       0.806382        21.9428 
 144   0.0000       0.811506        22.0822 
 145   0.0000       0.816119        22.2077 
 146   0.0000       0.819836        22.3089 
 147   0.0000       0.832529        22.6543 
 148   0.0000       0.838588        22.8191 
 149   0.0000       0.843326        22.9481 
 150   0.0000       0.850352        23.1393 
 151   0.0000       0.857679        23.3386 
 152   0.0000       0.862250        23.4630 
 153   0.0000       0.870540        23.6886 
 154   0.0000       0.875115        23.8131 
 155   0.0000       0.888515        24.1777 
 156   0.0000       0.890972        24.2446 
 157   0.0000       0.901153        24.5216 
 158   0.0000       0.910570        24.7779 
 159   0.0000       0.934551        25.4304 
 160   0.0000       0.943158        25.6646 
 161   0.0000       0.951186        25.8831 
 162   0.0000       0.969487        26.3811 
 163   0.0000       0.986249        26.8372 
 164   0.0000       0.995132        27.0789 
 165   0.0000       1.006803        27.3965 
 166   0.0000       1.032293        28.0901 
 167   0.0000       1.041703        28.3462 
 168   0.0000       1.063957        28.9517 
 169   0.0000       1.080304        29.3966 
 170   0.0000       1.103658        30.0321 
 171   0.0000       1.145236        31.1634 
 172   0.0000       1.156872        31.4801 
 173   0.0000       1.165657        31.7191 
 174   0.0000       1.183680        32.2096 
 175   0.0000       1.198186        32.6043 
 176   0.0000       1.225884        33.3580 
 177   0.0000       1.250297        34.0223 
 178   0.0000       1.268027        34.5048 
 179   0.0000       1.278151        34.7803 
 180   0.0000       1.286691        35.0127 
 181   0.0000       1.299274        35.3550 
 182   0.0000       1.314672        35.7740 
 183   0.0000       1.318944        35.8903 
 184   0.0000       1.336865        36.3780 
 185   0.0000       1.350602        36.7517 
 186   0.0000       1.354318        36.8529 
 187   0.0000       1.366467        37.1834 
 188   0.0000       1.384817        37.6828 
 189   0.0000       1.396980        38.0138 
 190   0.0000       1.429084        38.8874 
 191   0.0000       1.437272        39.1102 
 192   0.0000       1.447220        39.3809 
 193   0.0000       1.479817        40.2679 
 194   0.0000       1.490552        40.5600 
 195   0.0000       1.527059        41.5534 
 196   0.0000       1.540068        41.9074 
 197   0.0000       1.574853        42.8539 
 198   0.0000       1.588482        43.2248 
 199   0.0000       1.608501        43.7695 
 200   0.0000       1.628269        44.3074 
 201   0.0000       1.633390        44.4468 
 202   0.0000       1.674009        45.5521 
 203   0.0000       1.703690        46.3598 
 204   0.0000       1.728706        47.0405 
 205   0.0000       1.748079        47.5677 
 206   0.0000       1.768108        48.1127 
 207   0.0000       1.772800        48.2403 
 208   0.0000       1.786046        48.6008 
 209   0.0000       1.795515        48.8584 
 210   0.0000       1.804928        49.1146 
 211   0.0000       1.829097        49.7723 
 212   0.0000       1.835322        49.9416 
 213   0.0000       1.843306        50.1589 
 214   0.0000       1.859530        50.6004 
 215   0.0000       1.860279        50.6208 
 216   0.0000       1.863703        50.7139 
 217   0.0000       1.868478        50.8439 
 218   0.0000       1.880836        51.1802 
 219   0.0000       1.890658        51.4474 
 220   0.0000       1.893780        51.5324 
 221   0.0000       1.895866        51.5891 
 222   0.0000       1.900147        51.7056 
 223   0.0000       1.906674        51.8832 
 224   0.0000       1.919330        52.2276 
 225   0.0000       1.921479        52.2861 
 226   0.0000       1.936517        52.6953 
 227   0.0000       1.942826        52.8670 
 228   0.0000       1.960261        53.3414 
 229   0.0000       1.973383        53.6985 
 230   0.0000       1.979827        53.8738 
 231   0.0000       1.990578        54.1664 
 232   0.0000       2.007084        54.6155 
 233   0.0000       2.019678        54.9582 
 234   0.0000       2.032821        55.3159 
 235   0.0000       2.047266        55.7089 
 236   0.0000       2.052438        55.8497 
 237   0.0000       2.062662        56.1279 
 238   0.0000       2.074952        56.4623 
 239   0.0000       2.093563        56.9688 
 240   0.0000       2.096660        57.0530 
 241   0.0000       2.102634        57.2156 
 242   0.0000       2.122668        57.7607 
 243   0.0000       2.128356        57.9155 
 244   0.0000       2.147789        58.4443 
 245   0.0000       2.158910        58.7469 
 246   0.0000       2.163685        58.8769 
 247   0.0000       2.197083        59.7857 
 248   0.0000       2.204439        59.9858 
 249   0.0000       2.213603        60.2352 
 250   0.0000       2.222374        60.4739 
 251   0.0000       2.238885        60.9232 
 252   0.0000       2.249496        61.2119 
 253   0.0000       2.254005        61.3346 
 254   0.0000       2.266105        61.6638 
 255   0.0000       2.284753        62.1713 
 256   0.0000       2.290097        62.3167 
 257   0.0000       2.310325        62.8671 
 258   0.0000       2.317012        63.0491 
 259   0.0000       2.361706        64.2653 
 260   0.0000       2.377983        64.7082 
 261   0.0000       2.390634        65.0524 
 262   0.0000       2.412917        65.6588 
 263   0.0000       2.421689        65.8975 
 264   0.0000       2.427708        66.0613 
 265   0.0000       2.443814        66.4996 
 266   0.0000       2.472203        67.2721 
 267   0.0000       2.488171        67.7066 
 268   0.0000       2.491935        67.8090 
 269   0.0000       2.503751        68.1305 
 270   0.0000       2.526072        68.7379 
 271   0.0000       2.545559        69.2682 
 272   0.0000       2.564699        69.7890 
 273   0.0000       2.604145        70.8624 
 274   0.0000       2.615787        71.1792 
 275   0.0000       2.627413        71.4955 
 276   0.0000       2.639304        71.8191 
 277   0.0000       2.666179        72.5504 
 278   0.0000       2.679242        72.9059 
 279   0.0000       2.717930        73.9586 
 280   0.0000       2.731778        74.3355 
 281   0.0000       2.736992        74.4773 
 282   0.0000       2.755084        74.9697 
 283   0.0000       2.762878        75.1817 
 284   0.0000       2.774018        75.4849 
 285   0.0000       2.805810        76.3500 
 286   0.0000       2.835354        77.1539 
 287   0.0000       2.858778        77.7913 
 288   0.0000       2.864053        77.9348 
 289   0.0000       2.870838        78.1195 
 290   0.0000       2.892974        78.7218 
 291   0.0000       2.900604        78.9294 
 292   0.0000       2.924127        79.5695 
 293   0.0000       2.973319        80.9081 
 294   0.0000       2.991967        81.4156 
 295   0.0000       3.010675        81.9246 
 296   0.0000       3.032571        82.5205 
 297   0.0000       3.035330        82.5955 
 298   0.0000       3.041866        82.7734 
 299   0.0000       3.064562        83.3910 
 300   0.0000       3.083021        83.8933 
 301   0.0000       3.091704        84.1295 
 302   0.0000       3.130795        85.1933 
 303   0.0000       3.152770        85.7912 
 304   0.0000       3.206213        87.2455 
 305   0.0000       3.222261        87.6822 
 306   0.0000       3.231214        87.9258 
 307   0.0000       3.275219        89.1232 
 308   0.0000       3.351701        91.2044 
 309   0.0000       3.400722        92.5383 
 310   0.0000       3.466553        94.3297 
 311   0.0000       3.564827        97.0039 
 312   0.0000       3.787192       103.0547 

                    ********************************
                    * MULLIKEN POPULATION ANALYSIS *
                    ********************************

-----------------------
MULLIKEN ATOMIC CHARGES
-----------------------
   0 C :    0.011665
   1 H :    0.040680
   2 H :    0.029429
   3 C :   -0.002535
   4 H :    0.026209
   5 H :    0.020750
   6 C :   -0.085199
   7 N :   -0.167033
   8 H :    0.103810
   9 H :    0.103704
  10 C :    0.024985
  11 C :   -0.161202
  12 S :    0.074682
  13 C :   -0.253703
  14 C :    0.009733
  15 H :    0.002794
  16 C :    0.078456
  17 H :    0.051771
  18 H :    0.037975
  19 H :    0.052063
  20 H :    0.038174
  21 C :   -0.031042
  22 C :   -0.034762
  23 C :    0.001185
  24 C :   -0.006579
  25 C :   -0.010198
  26 C :   -0.020139
  27 H :    0.009669
  28 H :    0.008452
  29 H :    0.009447
  30 H :    0.007669
  31 H :    0.006190
  32 H :    0.022900
Sum of atomic charges:    0.0000000

--------------------------------
MULLIKEN REDUCED ORBITAL CHARGES
--------------------------------
  0 C s       :     2.966838  s :     2.966838
      pz      :     1.022845  p :     2.993220
      px      :     0.967699
      py      :     1.002676
      dz2     :     0.006873  d :     0.028277
      dxz     :     0.003430
      dyz     :     0.005342
      dx2y2   :     0.005366
      dxy     :     0.007266
  1 H s       :     0.935012  s :     0.935012
      pz      :     0.005831  p :     0.024309
      px      :     0.008436
      py      :     0.010042
  2 H s       :     0.945959  s :     0.945959
      pz      :     0.014893  p :     0.024611
      px      :     0.004365
      py      :     0.005354
  3 C s       :     3.020788  s :     3.020788
      pz      :     0.979609  p :     2.946166
      px      :     1.009767
      py      :     0.956789
      dz2     :     0.008598  d :     0.035581
      dxz     :     0.004328
      dyz     :     0.006239
      dx2y2   :     0.006058
      dxy     :     0.010358
  4 H s       :     0.951516  s :     0.951516
      pz      :     0.013239  p :     0.022275
      px      :     0.004165
      py      :     0.004871
  5 H s       :     0.956874  s :     0.956874
      pz      :     0.004773  p :     0.022377
      px      :     0.007892
      py      :     0.009712
  6 C s       :     3.108298  s :     3.108298
      pz      :     0.953859  p :     2.910726
      px      :     0.948281
      py      :     1.008586
      dz2     :     0.017179  d :     0.066175
      dxz     :     0.013209
      dyz     :     0.013113
      dx2y2   :     0.010073
      dxy     :     0.012601
  7 N s       :     3.382519  s :     3.382519
      pz      :     1.070010  p :     3.765574
      px      :     1.604241
      py      :     1.091323
      dz2     :     0.004492  d :     0.018940
      dxz     :     0.002950
      dyz     :     0.004963
      dx2y2   :     0.000872
      dxy     :     0.005663
  8 H s       :     0.851008  s :     0.851008
      pz      :     0.007985  p :     0.045183
      px      :     0.016969
      py      :     0.020229
  9 H s       :     0.850594  s :     0.850594
      pz      :     0.014377  p :     0.045702
      px      :     0.014357
      py      :     0.016968
 10 C s       :     3.065069  s :     3.065069
      pz      :     0.969588  p :     2.866409
      px      :     0.939499
      py      :     0.957321
      dz2     :     0.007830  d :     0.043537
      dxz     :     0.007820
      dyz     :     0.005974
      dx2y2   :     0.010453
      dxy     :     0.011460
 11 C s       :     3.201749  s :     3.201749
      pz      :     1.076841  p :     2.923123
      px      :     0.909449
      py      :     0.936832
      dz2     :     0.005451  d :     0.036330
      dxz     :     0.006598
      dyz     :     0.005520
      dx2y2   :     0.008759
      dxy     :     0.010003
 12 S s       :     5.839895  s :     5.839895
      pz      :     3.497986  p :     9.976029
      px      :     3.327227
      py      :     3.150817
      dz2     :     0.018321  d :     0.109394
      dxz     :     0.016299
      dyz     :     0.020476
      dx2y2   :     0.022622
      dxy     :     0.031675
 13 C s       :     3.114530  s :     3.114530
      pz      :     1.032478  p :     3.091793
      px      :     1.030279
      py      :     1.029035
      dz2     :     0.006468  d :     0.047381
      dxz     :     0.009223
      dyz     :     0.007897
      dx2y2   :     0.010306
      dxy     :     0.013487
 14 C s       :     3.199722  s :     3.199722
      pz      :     0.961024  p :     2.755175
      px      :     0.870926
      py      :     0.923225
      dz2     :     0.003783  d :     0.035371
      dxz     :     0.007467
      dyz     :     0.005624
      dx2y2   :     0.009742
      dxy     :     0.008754
 15 H s       :     0.972368  s :     0.972368
      pz      :     0.008384  p :     0.024838
      px      :     0.008287
      py      :     0.008167
 16 C s       :     2.926377  s :     2.926377
      pz      :     1.010022  p :     2.966882
      px      :     0.999154
      py      :     0.957706
      dz2     :     0.002629  d :     0.028284
      dxz     :     0.007262
      dyz     :     0.007290
      dx2y2   :     0.004019
      dxy     :     0.007084
 17 H s       :     0.924224  s :     0.924224
      pz      :     0.007882  p :     0.024005
      px      :     0.010869
      py      :     0.005255
 18 H s       :     0.937619  s :     0.937619
      pz      :     0.008260  p :     0.024406
      px      :     0.007903
      py      :     0.008243
 19 H s       :     0.923912  s :     0.923912
      pz      :     0.010926  p :     0.024025
      px      :     0.005953
      py      :     0.007147
 20 H s       :     0.937791  s :     0.937791
      pz      :     0.008382  p :     0.024035
      px      :     0.003048
      py      :     0.012604
 21 C s       :     3.083531  s :     3.083531
      pz      :     0.946525  p :     2.905680
      px      :     0.987195
      py      :     0.971959
      dz2     :     0.009785  d :     0.041831
      dxz     :     0.008259
      dyz     :     0.008011
      dx2y2   :     0.007785
      dxy     :     0.007992
 22 C s       :     3.227369  s :     3.227369
      pz      :     0.913585  p :     2.772277
      px      :     0.966701
      py      :     0.891991
      dz2     :     0.006426  d :     0.035116
      dxz     :     0.006925
      dyz     :     0.007175
      dx2y2   :     0.007833
      dxy     :     0.006757
 23 C s       :     3.144704  s :     3.144704
      pz      :     0.923942  p :     2.817881
      px      :     0.922144
      py      :     0.971795
      dz2     :     0.007045  d :     0.036230
      dxz     :     0.008461
      dyz     :     0.007330
      dx2y2   :     0.007306
      dxy     :     0.006087
 24 C s       :     3.141970  s :     3.141970
      pz      :     0.969671  p :     2.828636
      px      :     0.932712
      py      :     0.926253
      dz2     :     0.009224  d :     0.035973
      dxz     :     0.007924
      dyz     :     0.006882
      dx2y2   :     0.004880
      dxy     :     0.007063
 25 C s       :     3.146036  s :     3.146036
      pz      :     0.907068  p :     2.827895
      px      :     0.971772
      py      :     0.949055
      dz2     :     0.006796  d :     0.036267
      dxz     :     0.006954
      dyz     :     0.007474
      dx2y2   :     0.008076
      dxy     :     0.006968
 26 C s       :     3.217216  s :     3.217216
      pz      :     0.932838  p :     2.767746
      px      :     0.876936
      py      :     0.957972
      dz2     :     0.006855  d :     0.035178
      dxz     :     0.008007
      dyz     :     0.007246
      dx2y2   :     0.007112
      dxy     :     0.005957
 27 H s       :     0.966553  s :     0.966553
      pz      :     0.008317  p :     0.023778
      px      :     0.011212
      py      :     0.004249
 28 H s       :     0.968392  s :     0.968392
      pz      :     0.011610  p :     0.023157
      px      :     0.003919
      py      :     0.007627
 29 H s       :     0.967378  s :     0.967378
      pz      :     0.004069  p :     0.023175
      px      :     0.008747
      py      :     0.010358
 30 H s       :     0.969140  s :     0.969140
      pz      :     0.008424  p :     0.023191
      px      :     0.010557
      py      :     0.004210
 31 H s       :     0.969582  s :     0.969582
      pz      :     0.011607  p :     0.024228
      px      :     0.003844
      py      :     0.008776
 32 H s       :     0.953426  s :     0.953426
      pz      :     0.007890  p :     0.023673
      px      :     0.004577
      py      :     0.011207


                     *******************************
                     * LOEWDIN POPULATION ANALYSIS *
                     *******************************

----------------------
LOEWDIN ATOMIC CHARGES
----------------------
   0 C :   -0.058874
   1 H :    0.028108
   2 H :    0.024544
   3 C :   -0.027695
   4 H :    0.025227
   5 H :    0.018860
   6 C :    0.004666
   7 N :   -0.084054
   8 H :    0.058235
   9 H :    0.054960
  10 C :   -0.071913
  11 C :   -0.206629
  12 S :    0.391860
  13 C :   -0.174130
  14 C :   -0.080248
  15 H :    0.026829
  16 C :   -0.063803
  17 H :    0.038636
  18 H :    0.038577
  19 H :    0.039023
  20 H :    0.020687
  21 C :   -0.023679
  22 C :   -0.030049
  23 C :   -0.029096
  24 C :   -0.035341
  25 C :   -0.028557
  26 C :   -0.023136
  27 H :    0.030617
  28 H :    0.029062
  29 H :    0.027965
  30 H :    0.028494
  31 H :    0.027557
  32 H :    0.023296

-------------------------------
LOEWDIN REDUCED ORBITAL CHARGES
-------------------------------
  0 C s       :     2.824162  s :     2.824162
      pz      :     1.076039  p :     3.162090
      px      :     1.025935
      py      :     1.060117
      dz2     :     0.018323  d :     0.072621
      dxz     :     0.007638
      dyz     :     0.013739
      dx2y2   :     0.014041
      dxy     :     0.018880
  1 H s       :     0.903615  s :     0.903615
      pz      :     0.015129  p :     0.068277
      px      :     0.025610
      py      :     0.027538
  2 H s       :     0.906076  s :     0.906076
      pz      :     0.041219  p :     0.069381
      px      :     0.014026
      py      :     0.014136
  3 C s       :     2.834170  s :     2.834170
      pz      :     1.043393  p :     3.104346
      px      :     1.041039
      py      :     1.019913
      dz2     :     0.021810  d :     0.089179
      dxz     :     0.009285
      dyz     :     0.017366
      dx2y2   :     0.015448
      dxy     :     0.025269
  4 H s       :     0.907334  s :     0.907334
      pz      :     0.038625  p :     0.067440
      px      :     0.013808
      py      :     0.015008
  5 H s       :     0.913664  s :     0.913664
      pz      :     0.013914  p :     0.067476
      px      :     0.024551
      py      :     0.029011
  6 C s       :     2.828902  s :     2.828902
      pz      :     0.953259  p :     3.015807
      px      :     1.023104
      py      :     1.039444
      dz2     :     0.038663  d :     0.150625
      dxz     :     0.026441
      dyz     :     0.029886
      dx2y2   :     0.023133
      dxy     :     0.032501
  7 N s       :     3.118918  s :     3.118918
      pz      :     1.140103  p :     3.921739
      px      :     1.602613
      py      :     1.179023
      dz2     :     0.011858  d :     0.043397
      dxz     :     0.005062
      dyz     :     0.013504
      dx2y2   :     0.001586
      dxy     :     0.011387
  8 H s       :     0.818942  s :     0.818942
      pz      :     0.020990  p :     0.122823
      px      :     0.053057
      py      :     0.048776
  9 H s       :     0.821739  s :     0.821739
      pz      :     0.039082  p :     0.123301
      px      :     0.041200
      py      :     0.043019
 10 C s       :     2.858968  s :     2.858968
      pz      :     1.014299  p :     3.099557
      px      :     1.047737
      py      :     1.037520
      dz2     :     0.017325  d :     0.113388
      dxz     :     0.020962
      dyz     :     0.015409
      dx2y2   :     0.029366
      dxy     :     0.030325
 11 C s       :     2.912499  s :     2.912499
      pz      :     1.108212  p :     3.205957
      px      :     1.031168
      py      :     1.066577
      dz2     :     0.010967  d :     0.088172
      dxz     :     0.016437
      dyz     :     0.013030
      dx2y2   :     0.022858
      dxy     :     0.024880
 12 S s       :     5.488049  s :     5.488049
      pz      :     3.479083  p :     9.984447
      px      :     3.354471
      py      :     3.150893
      dz2     :     0.022074  d :     0.135644
      dxz     :     0.018145
      dyz     :     0.027210
      dx2y2   :     0.027342
      dxy     :     0.040873
 13 C s       :     2.907625  s :     2.907625
      pz      :     1.037562  p :     3.158514
      px      :     1.089803
      py      :     1.031150
      dz2     :     0.014160  d :     0.107991
      dxz     :     0.020140
      dyz     :     0.015991
      dx2y2   :     0.025040
      dxy     :     0.032658
 14 C s       :     2.853924  s :     2.853924
      pz      :     1.040052  p :     3.131329
      px      :     1.054379
      py      :     1.036898
      dz2     :     0.008455  d :     0.094996
      dxz     :     0.019448
      dyz     :     0.013903
      dx2y2   :     0.027894
      dxy     :     0.025296
 15 H s       :     0.901342  s :     0.901342
      pz      :     0.024687  p :     0.071829
      px      :     0.023068
      py      :     0.024074
 16 C s       :     2.821017  s :     2.821017
      pz      :     1.069982  p :     3.167052
      px      :     1.055149
      py      :     1.041922
      dz2     :     0.006372  d :     0.075734
      dxz     :     0.019311
      dyz     :     0.019840
      dx2y2   :     0.010487
      dxy     :     0.019724
 17 H s       :     0.894459  s :     0.894459
      pz      :     0.021083  p :     0.066905
      px      :     0.030605
      py      :     0.015216
 18 H s       :     0.894727  s :     0.894727
      pz      :     0.022256  p :     0.066696
      px      :     0.021456
      py      :     0.022985
 19 H s       :     0.894004  s :     0.894004
      pz      :     0.030370  p :     0.066973
      px      :     0.016022
      py      :     0.020581
 20 H s       :     0.901961  s :     0.901961
      pz      :     0.025800  p :     0.077351
      px      :     0.012585
      py      :     0.038967
 21 C s       :     2.850448  s :     2.850448
      pz      :     1.050734  p :     3.064724
      px      :     1.018641
      py      :     0.995349
      dz2     :     0.024895  d :     0.108507
      dxz     :     0.023223
      dyz     :     0.021144
      dx2y2   :     0.018070
      dxy     :     0.021176
 22 C s       :     2.850582  s :     2.850582
      pz      :     1.034265  p :     3.086211
      px      :     1.030727
      py      :     1.021219
      dz2     :     0.016817  d :     0.093256
      dxz     :     0.019160
      dyz     :     0.018814
      dx2y2   :     0.019109
      dxy     :     0.019357
 23 C s       :     2.850708  s :     2.850708
      pz      :     1.033096  p :     3.084035
      px      :     1.020657
      py      :     1.030282
      dz2     :     0.018046  d :     0.094352
      dxz     :     0.021800
      dyz     :     0.020457
      dx2y2   :     0.017502
      dxy     :     0.016548
 24 C s       :     2.851307  s :     2.851307
      pz      :     1.046915  p :     3.090462
      px      :     1.026680
      py      :     1.016867
      dz2     :     0.023369  d :     0.093571
      dxz     :     0.021846
      dyz     :     0.018672
      dx2y2   :     0.011735
      dxy     :     0.017948
 25 C s       :     2.850249  s :     2.850249
      pz      :     1.025301  p :     3.084091
      px      :     1.037251
      py      :     1.021539
      dz2     :     0.017349  d :     0.094217
      dxz     :     0.019094
      dyz     :     0.019183
      dx2y2   :     0.019325
      dxy     :     0.019266
 26 C s       :     2.849038  s :     2.849038
      pz      :     1.030992  p :     3.080741
      px      :     1.022820
      py      :     1.026928
      dz2     :     0.017926  d :     0.093357
      dxz     :     0.021317
      dyz     :     0.020436
      dx2y2   :     0.017252
      dxy     :     0.016426
 27 H s       :     0.899003  s :     0.899003
      pz      :     0.024925  p :     0.070380
      px      :     0.031231
      py      :     0.014225
 28 H s       :     0.902356  s :     0.902356
      pz      :     0.033091  p :     0.068582
      px      :     0.013096
      py      :     0.022395
 29 H s       :     0.903175  s :     0.903175
      pz      :     0.013692  p :     0.068860
      px      :     0.025541
      py      :     0.029627
 30 H s       :     0.902915  s :     0.902915
      pz      :     0.024755  p :     0.068591
      px      :     0.030030
      py      :     0.013806
 31 H s       :     0.898716  s :     0.898716
      pz      :     0.034116  p :     0.073726
      px      :     0.013372
      py      :     0.026238
 32 H s       :     0.909958  s :     0.909958
      pz      :     0.021372  p :     0.066746
      px      :     0.014302
      py      :     0.031072


                      *****************************
                      * MAYER POPULATION ANALYSIS *
                      *****************************

  NA   - Mulliken gross atomic population
  ZA   - Total nuclear charge
  QA   - Mulliken gross atomic charge
  VA   - Mayer's total valence
  BVA  - Mayer's bonded valence
  FA   - Mayer's free valence

  ATOM       NA         ZA         QA         VA         BVA        FA
  0 C      5.9883     6.0000     0.0117     3.9776     3.9776     0.0000
  1 H      0.9593     1.0000     0.0407     0.9975     0.9975    -0.0000
  2 H      0.9706     1.0000     0.0294     1.0207     1.0207     0.0000
  3 C      6.0025     6.0000    -0.0025     4.0499     4.0499     0.0000
  4 H      0.9738     1.0000     0.0262     0.9899     0.9899     0.0000
  5 H      0.9793     1.0000     0.0207     0.9828     0.9828     0.0000
  6 C      6.0852     6.0000    -0.0852     3.9845     3.9845     0.0000
  7 N      7.1670     7.0000    -0.1670     3.0769     3.0769    -0.0000
  8 H      0.8962     1.0000     0.1038     1.0045     1.0045     0.0000
  9 H      0.8963     1.0000     0.1037     1.0084     1.0084    -0.0000
 10 C      5.9750     6.0000     0.0250     3.9022     3.9022     0.0000
 11 C      6.1612     6.0000    -0.1612     3.8501     3.8501     0.0000
 12 S     15.9253    16.0000     0.0747     2.4441     2.4441     0.0000
 13 C      6.2537     6.0000    -0.2537     3.9803     3.9803    -0.0000
 14 C      5.9903     6.0000     0.0097     3.9100     3.9100     0.0000
 15 H      0.9972     1.0000     0.0028     1.0084     1.0084     0.0000
 16 C      5.9215     6.0000     0.0785     3.9227     3.9227    -0.0000
 17 H      0.9482     1.0000     0.0518     0.9930     0.9930    -0.0000
 18 H      0.9620     1.0000     0.0380     1.0006     1.0006    -0.0000
 19 H      0.9479     1.0000     0.0521     0.9934     0.9934     0.0000
 20 H      0.9618     1.0000     0.0382     1.0051     1.0051    -0.0000
 21 C      6.0310     6.0000    -0.0310     3.8106     3.8106     0.0000
 22 C      6.0348     6.0000    -0.0348     3.8936     3.8936     0.0000
 23 C      5.9988     6.0000     0.0012     3.8322     3.8322    -0.0000
 24 C      6.0066     6.0000    -0.0066     3.8402     3.8402     0.0000
[...]
 22 C s       :     3.225803  s :     3.225803
      pz      :     0.919493  p :     2.779819
      px      :     0.962323
      py      :     0.898003
      dz2     :     0.006199  d :     0.034114
      dxz     :     0.006905
      dyz     :     0.006731
      dx2y2   :     0.007631
      dxy     :     0.006648
 23 C s       :     3.151029  s :     3.151029
      pz      :     0.926907  p :     2.822964
      px      :     0.924611
      py      :     0.971446
      dz2     :     0.006920  d :     0.035158
      dxz     :     0.008329
      dyz     :     0.006969
      dx2y2   :     0.007033
      dxy     :     0.005907
 24 C s       :     3.148028  s :     3.148028
      pz      :     0.967174  p :     2.831105
      px      :     0.931529
      py      :     0.932402
      dz2     :     0.008917  d :     0.035005
      dxz     :     0.007830
      dyz     :     0.006642
      dx2y2   :     0.004767
      dxy     :     0.006850
 25 C s       :     3.151674  s :     3.151674
      pz      :     0.911965  p :     2.831615
      px      :     0.968231
      py      :     0.951418
      dz2     :     0.006558  d :     0.035205
      dxz     :     0.006994
      dyz     :     0.006952
      dx2y2   :     0.007836
      dxy     :     0.006866
 26 C s       :     3.218973  s :     3.218973
      pz      :     0.937031  p :     2.775406
      px      :     0.878908
      py      :     0.959468
      dz2     :     0.006676  d :     0.034202
      dxz     :     0.007908
      dyz     :     0.006843
      dx2y2   :     0.006980
      dxy     :     0.005794
 27 H s       :     0.959444  s :     0.959444
      pz      :     0.007909  p :     0.023216
      px      :     0.011283
      py      :     0.004024
 28 H s       :     0.960760  s :     0.960760
      pz      :     0.011425  p :     0.022547
      px      :     0.003693
      py      :     0.007429
 29 H s       :     0.959695  s :     0.959695
      pz      :     0.003921  p :     0.022550
      px      :     0.008745
      py      :     0.009883
 30 H s       :     0.961512  s :     0.961512
      pz      :     0.008138  p :     0.022607
      px      :     0.010472
      py      :     0.003997
 31 H s       :     0.960635  s :     0.960635
      pz      :     0.011401  p :     0.023627
      px      :     0.003640
      py      :     0.008587
 32 H s       :     0.949336  s :     0.949336
      pz      :     0.007759  p :     0.023055
      px      :     0.004262
      py      :     0.011034


                     *******************************
                     * LOEWDIN POPULATION ANALYSIS *
                     *******************************

----------------------
LOEWDIN ATOMIC CHARGES
----------------------
   0 C :   -0.063857
   1 H :    0.030041
   2 H :    0.027058
   3 C :   -0.033124
   4 H :    0.026138
   5 H :    0.020647
   6 C :    0.006828
   7 N :   -0.088649
   8 H :    0.059239
   9 H :    0.056185
  10 C :   -0.073388
  11 C :   -0.212534
  12 S :    0.400477
  13 C :   -0.181327
  14 C :   -0.082508
  15 H :    0.029704
  16 C :   -0.067635
  17 H :    0.040022
  18 H :    0.040375
  19 H :    0.040564
  20 H :    0.026933
  21 C :   -0.024104
  22 C :   -0.032159
  23 C :   -0.032292
  24 C :   -0.037606
  25 C :   -0.031862
  26 C :   -0.026264
  27 H :    0.032861
  28 H :    0.031673
  29 H :    0.030793
  30 H :    0.031076
  31 H :    0.030517
  32 H :    0.026179

-------------------------------
LOEWDIN REDUCED ORBITAL CHARGES
-------------------------------
  0 C s       :     2.833551  s :     2.833551
      pz      :     1.074357  p :     3.159355
      px      :     1.026860
      py      :     1.058137
      dz2     :     0.016958  d :     0.070952
      dxz     :     0.008007
      dyz     :     0.013765
      dx2y2   :     0.013751
      dxy     :     0.018472
  1 H s       :     0.904133  s :     0.904133
      pz      :     0.014828  p :     0.065826
      px      :     0.025679
      py      :     0.025319
  2 H s       :     0.906194  s :     0.906194
      pz      :     0.039758  p :     0.066748
      px      :     0.013412
      py      :     0.013579
  3 C s       :     2.841232  s :     2.841232
      pz      :     1.042963  p :     3.104051
      px      :     1.041340
      py      :     1.019748
      dz2     :     0.021295  d :     0.087841
      dxz     :     0.009237
      dyz     :     0.016838
      dx2y2   :     0.015003
      dxy     :     0.025468
  4 H s       :     0.908146  s :     0.908146
      pz      :     0.037980  p :     0.065716
      px      :     0.013333
      py      :     0.014403
  5 H s       :     0.913835  s :     0.913835
      pz      :     0.013578  p :     0.065519
      px      :     0.024507
      py      :     0.027434
  6 C s       :     2.835400  s :     2.835400
      pz      :     0.952538  p :     3.010445
      px      :     1.019577
      py      :     1.038330
      dz2     :     0.038329  d :     0.147326
      dxz     :     0.025797
      dyz     :     0.029376
      dx2y2   :     0.022792
      dxy     :     0.031032
  7 N s       :     3.129835  s :     3.129835
      pz      :     1.137521  p :     3.915280
      px      :     1.587460
      py      :     1.190299
      dz2     :     0.011760  d :     0.043535
      dxz     :     0.005110
      dyz     :     0.013506
      dx2y2   :     0.001807
      dxy     :     0.011351
  8 H s       :     0.819451  s :     0.819451
      pz      :     0.021053  p :     0.121309
      px      :     0.053642
      py      :     0.046614
  9 H s       :     0.822176  s :     0.822176
      pz      :     0.038521  p :     0.121638
      px      :     0.039743
      py      :     0.043374
 10 C s       :     2.866820  s :     2.866820
      pz      :     1.018988  p :     3.097636
      px      :     1.044218
      py      :     1.034430
      dz2     :     0.017310  d :     0.108932
      dxz     :     0.021224
      dyz     :     0.014741
      dx2y2   :     0.026947
      dxy     :     0.028709
 11 C s       :     2.920832  s :     2.920832
      pz      :     1.106079  p :     3.205636
      px      :     1.030893
      py      :     1.068664
      dz2     :     0.011466  d :     0.086066
      dxz     :     0.016319
      dyz     :     0.013003
      dx2y2   :     0.021595
      dxy     :     0.023683
 12 S s       :     5.483084  s :     5.483084
      pz      :     3.457540  p :     9.977708
      px      :     3.350616
      py      :     3.169553
      dz2     :     0.023706  d :     0.138732
      dxz     :     0.018559
      dyz     :     0.028235
      dx2y2   :     0.029155
      dxy     :     0.039077
 13 C s       :     2.912386  s :     2.912386
      pz      :     1.039888  p :     3.163296
      px      :     1.090339
      py      :     1.033069
      dz2     :     0.015040  d :     0.105645
      dxz     :     0.019371
      dyz     :     0.016342
      dx2y2   :     0.024457
      dxy     :     0.030434
 14 C s       :     2.863492  s :     2.863492
      pz      :     1.040867  p :     3.127316
      px      :     1.051369
      py      :     1.035080
      dz2     :     0.008394  d :     0.091700
      dxz     :     0.019418
      dyz     :     0.013513
      dx2y2   :     0.026482
      dxy     :     0.023893
 15 H s       :     0.901282  s :     0.901282
      pz      :     0.024510  p :     0.069014
      px      :     0.020867
      py      :     0.023636
 16 C s       :     2.831020  s :     2.831020
      pz      :     1.069616  p :     3.163361
      px      :     1.053581
      py      :     1.040164
      dz2     :     0.005852  d :     0.073253
      dxz     :     0.018344
      dyz     :     0.019749
      dx2y2   :     0.010192
      dxy     :     0.019117
 17 H s       :     0.894815  s :     0.894815
      pz      :     0.020135  p :     0.065163
      px      :     0.030505
      py      :     0.014523
 18 H s       :     0.894605  s :     0.894605
      pz      :     0.022663  p :     0.065020
      px      :     0.020201
      py      :     0.022156
 19 H s       :     0.894267  s :     0.894267
      pz      :     0.029189  p :     0.065169
      px      :     0.015144
      py      :     0.020837
 20 H s       :     0.898634  s :     0.898634
      pz      :     0.024998  p :     0.074434
      px      :     0.011986
      py      :     0.037450
 21 C s       :     2.858416  s :     2.858416
      pz      :     1.048234  p :     3.061352
      px      :     1.019385
      py      :     0.993734
      dz2     :     0.023865  d :     0.104336
      dxz     :     0.022527
      dyz     :     0.020175
      dx2y2   :     0.017501
      dxy     :     0.020268
 22 C s       :     2.859002  s :     2.859002
      pz      :     1.033487  p :     3.083165
      px      :     1.031474
      py      :     1.018203
      dz2     :     0.016079  d :     0.089993
      dxz     :     0.019069
      dyz     :     0.017434
      dx2y2   :     0.018577
      dxy     :     0.018833
 23 C s       :     2.858923  s :     2.858923
      pz      :     1.032787  p :     3.082199
      px      :     1.022021
      py      :     1.027390
      dz2     :     0.017667  d :     0.091171
      dxz     :     0.021440
      dyz     :     0.019365
      dx2y2   :     0.016745
      dxy     :     0.015954
 24 C s       :     2.859503  s :     2.859503
      pz      :     1.045491  p :     3.087492
      px      :     1.027236
      py      :     1.014764
      dz2     :     0.022484  d :     0.090611
      dxz     :     0.021578
      dyz     :     0.017871
      dx2y2   :     0.011472
      dxy     :     0.017206
 25 C s       :     2.858478  s :     2.858478
      pz      :     1.024320  p :     3.082325
      px      :     1.039040
      py      :     1.018965
      dz2     :     0.016639  d :     0.091059
      dxz     :     0.019158
      dyz     :     0.017679
      dx2y2   :     0.018747
      dxy     :     0.018836
 26 C s       :     2.857486  s :     2.857486
      pz      :     1.029672  p :     3.078568
      px      :     1.024617
      py      :     1.024278
      dz2     :     0.017308  d :     0.090210
      dxz     :     0.020970
      dyz     :     0.019188
      dx2y2   :     0.016862
      dxy     :     0.015881
 27 H s       :     0.898826  s :     0.898826
      pz      :     0.023661  p :     0.068314
      px      :     0.031324
      py      :     0.013329
 28 H s       :     0.901757  s :     0.901757
      pz      :     0.032619  p :     0.066570
      px      :     0.012243
      py      :     0.021708
 29 H s       :     0.902423  s :     0.902423
      pz      :     0.013028  p :     0.066784
      px      :     0.025461
      py      :     0.028294
 30 H s       :     0.902351  s :     0.902351
      pz      :     0.023833  p :     0.066572
      px      :     0.029768
      py      :     0.012971
 31 H s       :     0.897846  s :     0.897846
      pz      :     0.033546  p :     0.071637
      px      :     0.012554
      py      :     0.025537
 32 H s       :     0.909147  s :     0.909147
      pz      :     0.020864  p :     0.064675
      px      :     0.013073
      py      :     0.030738


                      *****************************
                      * MAYER POPULATION ANALYSIS *
                      *****************************

  NA   - Mulliken gross atomic population
  ZA   - Total nuclear charge
  QA   - Mulliken gross atomic charge
  VA   - Mayer's total valence
  BVA  - Mayer's bonded valence
  FA   - Mayer's free valence

  ATOM       NA         ZA         QA         VA         BVA        FA
  0 C      6.0023     6.0000    -0.0023     3.9761     3.9761     0.0000
  1 H      0.9561     1.0000     0.0439     0.9955     0.9955     0.0000
  2 H      0.9653     1.0000     0.0347     1.0148     1.0148    -0.0000
  3 C      6.0150     6.0000    -0.0150     4.0484     4.0484     0.0000
  4 H      0.9708     1.0000     0.0292     0.9876     0.9876     0.0000
  5 H      0.9761     1.0000     0.0239     0.9821     0.9821     0.0000
  6 C      6.0773     6.0000    -0.0773     3.9908     3.9908     0.0000
  7 N      7.1702     7.0000    -0.1702     3.0693     3.0693     0.0000
  8 H      0.8966     1.0000     0.1034     1.0042     1.0042    -0.0000
  9 H      0.8964     1.0000     0.1036     1.0064     1.0064    -0.0000
 10 C      5.9914     6.0000     0.0086     3.8977     3.8977     0.0000
 11 C      6.1612     6.0000    -0.1612     3.8510     3.8510     0.0000
 12 S     15.9182    16.0000     0.0818     2.4562     2.4562    -0.0000
 13 C      6.2476     6.0000    -0.2476     3.9739     3.9739     0.0000
 14 C      5.9990     6.0000     0.0010     3.9124     3.9124     0.0000
 15 H      0.9878     1.0000     0.0122     1.0071     1.0071     0.0000
 16 C      5.9455     6.0000     0.0545     3.9297     3.9297     0.0000
 17 H      0.9435     1.0000     0.0565     0.9907     0.9907    -0.0000
 18 H      0.9582     1.0000     0.0418     0.9990     0.9990     0.0000
 19 H      0.9430     1.0000     0.0570     0.9913     0.9913    -0.0000
 20 H      0.9505     1.0000     0.0495     1.0042     1.0042    -0.0000
 21 C      6.0287     6.0000    -0.0287     3.8197     3.8197     0.0000
 22 C      6.0397     6.0000    -0.0397     3.8967     3.8967     0.0000
 23 C      6.0092     6.0000    -0.0092     3.8392     3.8392     0.0000
 24 C      6.0141     6.0000    -0.0141     3.8454     3.8454     0.0000
 25 C      6.0185     6.0000    -0.0185     3.8715     3.8715     0.0000
 26 C      6.0286     6.0000    -0.0286     3.8639     3.8639     0.0000
 27 H      0.9827     1.0000     0.0173     0.9941     0.9941    -0.0000
 28 H      0.9833     1.0000     0.0167     0.9840     0.9840    -0.0000
 29 H      0.9822     1.0000     0.0178     0.9841     0.9841    -0.0000
 30 H      0.9841     1.0000     0.0159     0.9844     0.9844    -0.0000
 31 H      0.9843     1.0000     0.0157     1.0226     1.0226     0.0000
 32 H      0.9724     1.0000     0.0276     0.9860     0.9860    -0.0000

  Mayer bond orders larger than 0.100000
B(  0-C ,  1-H ) :   0.9665 B(  0-C ,  2-H ) :   0.9640 B(  0-C ,  3-C ) :   1.0911 
B(  0-C , 32-H ) :   0.9676 B(  3-C ,  4-H ) :   0.9392 B(  3-C ,  5-H ) :   0.9330 
B(  3-C ,  6-C ) :   1.0561 B(  6-C ,  7-N ) :   1.0886 B(  6-C , 10-C ) :   0.9353 
B(  6-C , 21-C ) :   0.9147 B(  7-N ,  8-H ) :   0.9636 B(  7-N ,  9-H ) :   0.9547 
B( 10-C , 11-C ) :   1.6413 B( 10-C , 14-C ) :   1.2276 B( 11-C , 12-S ) :   1.1274 
B( 11-C , 20-H ) :   0.9552 B( 12-S , 13-C ) :   1.1546 B( 13-C , 14-C ) :   1.6166 
B( 13-C , 16-C ) :   1.0458 B( 14-C , 15-H ) :   0.9917 B( 16-C , 17-H ) :   0.9598 
B( 16-C , 18-H ) :   0.9653 B( 16-C , 19-H ) :   0.9596 B( 21-C , 22-C ) :   1.4424 
B( 21-C , 26-C ) :   1.3974 B( 22-C , 23-C ) :   1.3662 B( 22-C , 31-H ) :   0.9782 
B( 23-C , 24-C ) :   1.4042 B( 23-C , 30-H ) :   0.9876 B( 24-C , 25-C ) :   1.3838 
B( 24-C , 29-H ) :   0.9893 B( 25-C , 26-C ) :   1.4062 B( 25-C , 28-H ) :   0.9869 
B( 26-C , 27-H ) :   0.9899 

-------
TIMINGS
-------

Total SCF time: 0 days 0 hours 3 min 15 sec 

Total time                  ....     195.325 sec
Sum of individual times     ....     195.039 sec  ( 99.9%)

Fock matrix formation       ....     191.325 sec  ( 98.0%)
  XC integration            ....       7.248 sec  (  3.8% of F)
    Basis function eval.    ....       2.216 sec  ( 30.6% of XC)
    Density eval.           ....       1.556 sec  ( 21.5% of XC)
    XC-Functional eval.     ....       1.486 sec  ( 20.5% of XC)
    XC-Potential eval.      ....       1.796 sec  ( 24.8% of XC)
Diagonalization             ....       0.017 sec  (  0.0%)
Density matrix formation    ....       0.014 sec  (  0.0%)
Population analysis         ....       0.013 sec  (  0.0%)
Initial guess               ....       0.016 sec  (  0.0%)
Orbital Transformation      ....       0.000 sec  (  0.0%)
Orbital Orthonormalization  ....       0.011 sec  (  0.0%)
DIIS solution               ....       0.005 sec  (  0.0%)
SOSCF solution              ....       0.054 sec  (  0.0%)
Grid generation             ....       3.596 sec  (  1.8%)


-------------------------------------------------------------------------------
                          DFT DISPERSION CORRECTION                            
                                                                               
                              DFTD3 V3.1  Rev 1                                
                              USING zero damping                               
-------------------------------------------------------------------------------
The omegaB97X-D3 functional is recognized. Fit by Chai et al.
Active option DFTDOPT                   ...         3   

molecular C6(AA) [au] = 12486.297863 


            DFT-D V3
 parameters
 s6 scaling factor         :     1.0000 
 rs6 scaling factor        :     1.2810 
 s8 scaling factor         :     1.0000 
 rs8 scaling factor        :     1.0940 
 Damping factor alpha6     :    14.0000 
 Damping factor alpha8     :    16.0000 
 ad hoc parameters k1-k3   :    16.0000     1.3333    -4.0000 

 Edisp/kcal,au: -9.954240144042  -0.015863089712 
 E6   /kcal   :  -4.643061756 
 E8   /kcal   :  -5.311178388 
 % E8         :  53.355939893 

-------------------------   ----------------
Dispersion correction           -0.015863090
-------------------------   ----------------


-------------------------   --------------------
FINAL SINGLE POINT ENERGY      -995.957225298160
-------------------------   --------------------

                                *** OPTIMIZATION RUN DONE ***

                            ***************************************
                            *     ORCA property calculations      *
                            ***************************************

                                    ---------------------
                                    Active property flags
                                    ---------------------
   (+) Dipole Moment


------------------------------------------------------------------------------
                       ORCA ELECTRIC PROPERTIES CALCULATION
------------------------------------------------------------------------------

Dipole Moment Calculation                       ... on
Quadrupole Moment Calculation                   ... off
Polarizability Calculation                      ... off
GBWName                                         ... 065100039.gbw
Electron density file                           ... 065100039.scfp
The origin for moment calculation is the CENTER OF MASS  = ( 0.011309, -0.004381  0.009564)

-------------
DIPOLE MOMENT
-------------
                                X             Y             Z
Electronic contribution:     -8.57913      -2.93754       2.38743
Nuclear contribution   :      8.18673       2.73290      -2.58599
                        -----------------------------------------
Total Dipole Moment    :     -0.39240      -0.20463      -0.19856
                        -----------------------------------------
Magnitude (a.u.)       :      0.48505
Magnitude (Debye)      :      1.23291



--------------------
Rotational spectrum 
--------------------
 
Rotational constants in cm-1:     0.024762     0.011028     0.009079 
Rotational constants in MHz :   742.334272   330.617754   272.191626 

 Dipole components along the rotational axes: 
x,y,z [a.u.] :    -0.391308    -0.206151    -0.199137 
x,y,z [Debye]:    -0.994626    -0.523994    -0.506166 

 

Timings for individual modules:

Sum of individual times         ...     2794.876 sec (=  46.581 min)
GTO integral calculation        ...        2.233 sec (=   0.037 min)   0.1 %
SCF iterations                  ...     1840.877 sec (=  30.681 min)  65.9 %
SCF Gradient evaluation         ...      950.677 sec (=  15.845 min)  34.0 %
Geometry relaxation             ...        1.090 sec (=   0.018 min)   0.0 %
                             ****ORCA TERMINATED NORMALLY****
TOTAL RUN TIME: 0 days 0 hours 46 minutes 36 seconds 242 msec
