 Entering Gaussian System
 *********************************************
 Gaussian 98:
 frequency output generated by the xtb code
 *********************************************
                         Standard orientation:
 --------------------------------------------------------------------
  Center     Atomic     Atomic              Coordinates (Angstroms)
  Number     Number      Type              X           Y           Z
 --------------------------------------------------------------------
    1          6             0        2.248532    2.750895    0.382779
    2          1             0        2.973713    1.995755    0.675019
    3          1             0        2.401522    2.988498   -0.665994
    4          6             0        0.828297    2.243584    0.597668
    5          1             0        0.699166    1.931852    1.635427
    6          1             0        0.124829    3.054252    0.393273
    7          6             0        0.488812    1.056852   -0.324050
    8          7             0        0.601849    1.513318   -1.710156
    9          1             0       -0.017076    2.303160   -1.859975
   10          1             0        0.320087    0.772466   -2.343524
   11          6             0       -0.912745    0.533214   -0.067760
   12          6             0       -1.892399    1.131969    0.655280
   13         16             0       -3.371040    0.243215    0.627845
   14          6             0       -2.663076   -0.973047   -0.390163
   15          6             0       -1.369719   -0.675464   -0.667922
   16          1             0       -0.737456   -1.302489   -1.273455
   17          6             0       -3.462415   -2.144576   -0.836274
   18          1             0       -4.330077   -1.822584   -1.411953
   19          1             0       -2.850931   -2.796542   -1.455804
   20          1             0       -3.823791   -2.711866    0.021012
   21          1             0       -1.858288    2.041515    1.220000
   22          6             0        1.475617   -0.068517   -0.067826
   23          6             0        2.528773   -0.319251   -0.935929
   24          6             0        3.424972   -1.341043   -0.674201
   25          6             0        3.281491   -2.121396    0.459526
   26          6             0        2.237532   -1.871492    1.334364
   27          6             0        1.341271   -0.851795    1.072503
   28          1             0        0.526155   -0.664238    1.757232
   29          1             0        2.120393   -2.473780    2.223701
   30          1             0        3.980530   -2.919487    0.662982
   31          1             0        4.240392   -1.526566   -1.358555
   32          1             0        2.644502    0.298148   -1.812665
   33          1             0        2.419752    3.645568    0.977009
 --------------------------------------------------------------------
     1 basis functions        1 primitive gaussians
     1 alpha electrons        1 beta electrons
 
 Harmonic frequencies (cm**-1), IR intensities (KM/Mole),
 Raman scattering activities (A**4/amu), Raman depolarization ratios,
 reduced masses (AMU), force constants (mDyne/A) and normal coordinates:
                      1                      2                      3
                        a                      a                      a 
 Frequencies --    33.6524                46.9939                57.5520
 Red. masses --    14.8273                11.5625                11.1152
 Frc consts  --     0.0000                 0.0000                 0.0000
 IR Inten    --     0.0773                 0.0798                 0.1031
 Raman Activ --     0.0000                 0.0000                 0.0000
 Depolar     --     0.0000                 0.0000                 0.0000
 Atom AN      X      Y      Z        X      Y      Z        X      Y      Z
   1   6     0.04  -0.09   0.23     0.03   0.07   0.07     0.01  -0.13   0.04
   2   1    -0.00  -0.04   0.07    -0.00   0.01   0.02    -0.00  -0.04   0.01
   3   1     0.03  -0.02   0.07     0.02   0.02   0.02     0.00  -0.05   0.01
   4   6     0.00  -0.03   0.12     0.01   0.10   0.03     0.00  -0.10   0.07
   5   1    -0.02  -0.02   0.03    -0.01   0.03   0.01     0.00  -0.03   0.02
   6   1     0.02   0.00   0.03     0.01   0.03   0.01     0.00  -0.03   0.02
   7   6    -0.00   0.02   0.06     0.02   0.12   0.00    -0.03  -0.09   0.07
   8   7    -0.01   0.10   0.09     0.05   0.16   0.02    -0.12  -0.07   0.08
   9   1     0.00   0.03   0.04     0.03   0.06   0.01    -0.03  -0.01   0.04
  10   1    -0.01   0.04   0.01    -0.01   0.06   0.00    -0.05  -0.01   0.02
  11   6    -0.01   0.02   0.02     0.03   0.08  -0.03    -0.02  -0.10   0.10
  12   6    -0.12   0.18  -0.25     0.01  -0.03   0.02    -0.03  -0.04   0.04
  13  16    -0.16   0.23  -0.39     0.12  -0.23   0.04    -0.15   0.12  -0.15
  14   6     0.07  -0.09   0.15     0.14  -0.04  -0.05    -0.11   0.04  -0.06
  15   6     0.09  -0.13   0.24     0.11   0.07  -0.07    -0.06  -0.06   0.05
  16   1     0.05  -0.07   0.13     0.04   0.04  -0.03    -0.02  -0.03   0.03
  17   6     0.16  -0.22   0.34     0.22  -0.09  -0.07    -0.19   0.15  -0.20
  18   1     0.06  -0.11   0.04     0.05  -0.04   0.00     0.01   0.08  -0.14
  19   1     0.07  -0.10   0.17     0.07   0.00  -0.05    -0.04  -0.01   0.01
  20   1     0.02  -0.01   0.13     0.10  -0.05  -0.03    -0.16   0.08  -0.08
  21   1    -0.06   0.09  -0.13    -0.01  -0.01   0.02    -0.00  -0.01   0.01
  22   6     0.00   0.01  -0.01    -0.02   0.09   0.01     0.03  -0.06   0.01
  23   6    -0.04   0.02  -0.07    -0.21  -0.20  -0.13    -0.13  -0.15  -0.15
  24   6    -0.05  -0.01  -0.14    -0.34  -0.31  -0.15    -0.02  -0.06  -0.15
  25   6    -0.01  -0.04  -0.16    -0.26  -0.13  -0.02     0.25   0.14   0.02
  26   6     0.04  -0.04  -0.10    -0.06   0.17   0.14     0.40   0.22   0.17
  27   6     0.04  -0.02  -0.03     0.06   0.27   0.15     0.27   0.11   0.16
  28   1     0.02  -0.01   0.00     0.06   0.14   0.07     0.11   0.05   0.08
  29   1     0.02  -0.02  -0.03     0.00   0.09   0.07     0.17   0.11   0.09
  30   1    -0.01  -0.02  -0.06    -0.10  -0.06  -0.01     0.10   0.07   0.01
  31   1    -0.02  -0.00  -0.05    -0.14  -0.16  -0.08    -0.04  -0.04  -0.08
  32   1    -0.02   0.01  -0.02    -0.07  -0.10  -0.07    -0.09  -0.08  -0.08
  33   1     0.01  -0.03   0.08     0.01   0.01   0.03     0.01  -0.03   0.01
                      4                      5                      6
                        a                      a                      a 
 Frequencies --    71.9757                85.1589               128.2358
 Red. masses --     2.2285                10.4598                10.3073
 Frc consts  --     0.0000                 0.0000                 0.0000
 IR Inten    --     0.0368                 0.1212                 0.1587
 Raman Activ --     0.0000                 0.0000                 0.0000
 Depolar     --     0.0000                 0.0000                 0.0000
 Atom AN      X      Y      Z        X      Y      Z        X      Y      Z
   1   6    -0.04   0.13  -0.11     0.16  -0.39   0.37     0.36  -0.32  -0.29
   2   1     0.01   0.05  -0.05    -0.03  -0.15   0.20     0.07  -0.12  -0.08
   3   1    -0.04   0.04  -0.03     0.16  -0.14   0.12     0.07  -0.15  -0.10
   4   6     0.00   0.05  -0.01    -0.03  -0.06  -0.07     0.27   0.01   0.00
   5   1     0.02   0.02  -0.00    -0.11  -0.01  -0.03     0.11   0.02   0.01
   6   1    -0.02   0.00   0.01     0.06   0.03  -0.08     0.12   0.04   0.03
   7   6     0.01   0.02   0.02    -0.04   0.02  -0.18    -0.06   0.05   0.08
   8   7    -0.01  -0.01   0.01     0.08   0.10  -0.15    -0.23   0.05   0.06
   9   1    -0.01  -0.01  -0.00     0.04   0.04  -0.04    -0.06   0.02   0.04
  10   1     0.00  -0.01   0.01     0.02   0.04  -0.06    -0.10   0.02   0.03
  11   6     0.02   0.01   0.04    -0.05   0.05  -0.21    -0.05   0.10   0.16
  12   6     0.01  -0.01   0.03     0.02   0.00  -0.07    -0.13   0.04   0.10
  13  16     0.04  -0.06   0.06     0.10  -0.10   0.23    -0.14  -0.11  -0.06
  14   6     0.05  -0.03   0.05    -0.03  -0.02   0.02     0.06  -0.00  -0.01
  15   6     0.05  -0.01   0.05    -0.09   0.04  -0.17     0.06   0.08   0.11
  16   1     0.02  -0.00   0.02    -0.04   0.02  -0.08     0.04   0.04   0.04
  17   6     0.04   0.03  -0.08    -0.06  -0.04   0.12     0.24  -0.06  -0.16
  18   1     0.31   0.01  -0.49     0.05  -0.03  -0.08     0.07  -0.04  -0.06
  19   1     0.16  -0.25   0.40     0.01  -0.09   0.15     0.11   0.02  -0.05
  20   1    -0.46   0.29  -0.04    -0.12   0.08   0.05     0.07  -0.05  -0.07
  21   1    -0.00  -0.00   0.01     0.02  -0.00  -0.02    -0.06   0.01   0.03
  22   6     0.01   0.02   0.03    -0.07   0.00  -0.14    -0.12  -0.01  -0.01
  23   6     0.02   0.03   0.04    -0.02  -0.01  -0.08    -0.09   0.05   0.01
  24   6    -0.02  -0.02   0.00     0.04   0.08   0.05    -0.02   0.13   0.06
  25   6    -0.08  -0.07  -0.04     0.04   0.18   0.12    -0.00   0.13   0.06
  26   6    -0.08  -0.07  -0.04    -0.03   0.16   0.04    -0.08   0.02   0.00
  27   6    -0.03  -0.02  -0.01    -0.09   0.07  -0.10    -0.13  -0.04  -0.03
  28   1    -0.01  -0.00  -0.00    -0.04   0.02  -0.05    -0.05  -0.02  -0.02
  29   1    -0.03  -0.03  -0.02    -0.01   0.07   0.02    -0.02   0.00  -0.00
  30   1    -0.03  -0.03  -0.02     0.03   0.08   0.07     0.02   0.06   0.03
  31   1    -0.01  -0.00   0.00     0.03   0.02   0.03     0.01   0.06   0.03
  32   1     0.02   0.02   0.02    -0.00  -0.02  -0.04    -0.03   0.02   0.00
  33   1    -0.01   0.04  -0.03     0.04  -0.11   0.10     0.19  -0.08  -0.13
                      7                      8                      9
                        a                      a                      a 
 Frequencies --   136.8489               196.2245               211.5906
 Red. masses --     7.1955                10.3179                 7.5284
 Frc consts  --     0.0000                 0.0000                 0.0000
 IR Inten    --     0.1048                 0.0843                 0.0957
 Raman Activ --     0.0000                 0.0000                 0.0000
 Depolar     --     0.0000                 0.0000                 0.0000
 Atom AN      X      Y      Z        X      Y      Z        X      Y      Z
   1   6    -0.07   0.11  -0.18    -0.02   0.02  -0.07    -0.04   0.11   0.23
   2   1     0.06   0.01  -0.32    -0.01   0.03   0.06    -0.02  -0.08  -0.20
   3   1    -0.19   0.25  -0.03     0.02  -0.09  -0.04    -0.03   0.37   0.14
   4   6     0.13  -0.26   0.25    -0.02   0.05  -0.02    -0.05   0.02  -0.12
   5   1     0.18  -0.19   0.05    -0.01   0.05   0.00    -0.06  -0.00  -0.04
   6   1    -0.03  -0.09   0.24    -0.01   0.01  -0.03    -0.01   0.00  -0.06
   7   6     0.01  -0.02  -0.03    -0.02  -0.02   0.08    -0.01  -0.03  -0.08
   8   7     0.11   0.30   0.09     0.30  -0.19   0.05    -0.07  -0.32  -0.18
   9   1     0.07   0.13   0.08     0.17   0.01  -0.03     0.01  -0.07  -0.08
  10   1    -0.02   0.14  -0.03     0.02  -0.04   0.02    -0.06  -0.11   0.00
  11   6    -0.03   0.03  -0.13    -0.12   0.18  -0.10    -0.01   0.12   0.09
  12   6    -0.00   0.02  -0.07    -0.09   0.05   0.05    -0.04   0.13   0.04
  13  16     0.02  -0.00   0.01    -0.13   0.00   0.04    -0.02   0.09   0.11
  14   6    -0.03   0.00  -0.03    -0.08   0.14  -0.15     0.05   0.06   0.09
  15   6    -0.06   0.04  -0.13    -0.15   0.30  -0.29     0.05   0.09   0.14
  16   1    -0.02   0.02  -0.05    -0.05   0.11  -0.12     0.02   0.03   0.05
  17   6    -0.02  -0.06   0.13     0.19  -0.15   0.14     0.27   0.02  -0.17
  18   1    -0.00  -0.05   0.02     0.04  -0.16  -0.01     0.09  -0.01  -0.07
  19   1    -0.00  -0.05   0.07     0.11  -0.06   0.12     0.14   0.07  -0.06
  20   1    -0.01   0.02   0.06     0.08   0.02   0.09     0.07  -0.06  -0.09
  21   1     0.01  -0.00  -0.01    -0.02  -0.01   0.06    -0.03   0.05   0.00
  22   6    -0.08  -0.12  -0.13    -0.09  -0.09   0.19    -0.08  -0.10  -0.06
  23   6    -0.06  -0.15  -0.09    -0.15  -0.01   0.08    -0.09  -0.11  -0.07
  24   6     0.03  -0.04   0.07    -0.05   0.05  -0.09    -0.00  -0.02  -0.02
  25   6     0.10   0.11   0.17     0.14  -0.00  -0.10     0.09   0.06   0.05
  26   6    -0.00   0.06   0.07     0.19  -0.11   0.00     0.02  -0.03  -0.01
  27   6    -0.09  -0.07  -0.09     0.06  -0.17   0.15    -0.08  -0.12  -0.07
  28   1    -0.04  -0.02  -0.04     0.03  -0.08   0.07    -0.03  -0.05  -0.03
  29   1     0.00   0.04   0.04     0.10  -0.05  -0.00     0.01  -0.00   0.00
  30   1     0.06   0.07   0.09     0.06   0.01  -0.05     0.06   0.05   0.04
  31   1     0.02  -0.01   0.03    -0.03   0.04  -0.06     0.00   0.00  -0.00
  32   1    -0.02  -0.07  -0.04    -0.08   0.01   0.03    -0.04  -0.04  -0.03
  33   1     0.03  -0.08   0.10    -0.02   0.06  -0.09     0.03  -0.16   0.35
                     10                     11                     12
                        a                      a                      a 
 Frequencies --   223.5613               233.2777               273.8388
 Red. masses --     6.2858                11.3356                12.1361
 Frc consts  --     0.0000                 0.0000                 0.0000
 IR Inten    --     0.0304                 0.2219                 0.1543
 Raman Activ --     0.0000                 0.0000                 0.0000
 Depolar     --     0.0000                 0.0000                 0.0000
 Atom AN      X      Y      Z        X      Y      Z        X      Y      Z
   1   6    -0.15   0.16   0.05    -0.02   0.03   0.10    -0.06  -0.09  -0.04
   2   1    -0.01   0.21   0.36    -0.00   0.02   0.04     0.00  -0.00   0.00
   3   1     0.05  -0.30  -0.05     0.01   0.01   0.03    -0.04  -0.06  -0.02
   4   6    -0.07  -0.05   0.03    -0.01  -0.03   0.01    -0.02  -0.15   0.06
   5   1    -0.02  -0.01   0.01    -0.01  -0.02  -0.00     0.02  -0.08   0.01
   6   1    -0.05  -0.04  -0.00    -0.01  -0.01  -0.00    -0.02  -0.04   0.06
   7   6     0.01  -0.03  -0.02     0.01  -0.03  -0.01    -0.01  -0.04  -0.08
   8   7    -0.05   0.10   0.02    -0.39   0.00  -0.03     0.01   0.11  -0.02
   9   1     0.01   0.05   0.04    -0.23  -0.10   0.01    -0.15  -0.10  -0.04
  10   1    -0.06   0.06  -0.01    -0.01  -0.05   0.01     0.21  -0.02  -0.04
  11   6     0.02   0.05   0.05     0.06  -0.07   0.12    -0.12   0.08  -0.06
  12   6     0.01   0.09   0.00     0.16  -0.20   0.36    -0.17   0.14  -0.14
  13  16     0.04   0.09   0.07    -0.03   0.19  -0.21    -0.25   0.05   0.27
  14   6     0.06   0.03   0.09    -0.06   0.17  -0.22    -0.16   0.04   0.11
  15   6     0.06   0.02   0.12    -0.05   0.14  -0.20    -0.19   0.08   0.04
  16   1     0.02   0.00   0.04    -0.03   0.05  -0.08    -0.07   0.02   0.00
  17   6     0.17   0.03  -0.12     0.15  -0.13   0.19     0.20  -0.10  -0.17
  18   1     0.06   0.01  -0.04     0.02  -0.17   0.02     0.06  -0.08  -0.09
  19   1     0.08   0.05  -0.05     0.08  -0.08   0.14     0.15   0.06  -0.05
  20   1     0.04  -0.04  -0.07     0.08   0.05   0.13     0.06  -0.11  -0.10
  21   1    -0.01   0.03  -0.01     0.08  -0.10   0.18    -0.06   0.05  -0.06
  22   6    -0.06  -0.14  -0.15     0.09   0.02  -0.11     0.15   0.04  -0.11
  23   6    -0.08  -0.23  -0.15     0.13  -0.05  -0.06     0.30   0.03   0.04
  24   6     0.03  -0.10   0.02     0.07  -0.09   0.05     0.15  -0.11   0.06
  25   6     0.15   0.08   0.15    -0.03  -0.05   0.07    -0.04  -0.22  -0.04
  26   6    -0.02  -0.04  -0.01    -0.06   0.03   0.01     0.07   0.05   0.02
  27   6    -0.12  -0.18  -0.18     0.02   0.06  -0.09     0.21   0.17  -0.02
  28   1    -0.06  -0.07  -0.08    -0.00   0.04  -0.04     0.07   0.08  -0.00
  29   1    -0.01   0.00   0.01    -0.04   0.02   0.01    -0.00   0.04   0.02
  30   1     0.09   0.08   0.10    -0.02  -0.02   0.04    -0.07  -0.12  -0.03
  31   1     0.02  -0.03   0.02     0.03  -0.04   0.03     0.05  -0.05   0.03
  32   1    -0.03  -0.10  -0.07     0.06  -0.03  -0.02     0.14   0.01   0.02
  33   1    -0.20   0.27  -0.27    -0.03   0.01   0.03    -0.02  -0.00  -0.04
                     13                     14                     15
                        a                      a                      a 
 Frequencies --   291.5811               297.8195               318.4119
 Red. masses --     5.8180                12.1199                11.4927
 Frc consts  --     0.0000                 0.0000                 0.0000
 IR Inten    --     0.1632                 0.1202                 0.2526
 Raman Activ --     0.0000                 0.0000                 0.0000
 Depolar     --     0.0000                 0.0000                 0.0000
 Atom AN      X      Y      Z        X      Y      Z        X      Y      Z
   1   6     0.10   0.12   0.06    -0.25  -0.27  -0.10    -0.08  -0.13  -0.12
   2   1     0.03   0.04   0.04    -0.07  -0.08  -0.04    -0.08  -0.11  -0.10
   3   1     0.08   0.05   0.03    -0.11  -0.11  -0.04    -0.03   0.01  -0.02
   4   6     0.09   0.04  -0.10    -0.20  -0.24   0.10    -0.17   0.16  -0.12
   5   1     0.01   0.02  -0.03    -0.02  -0.12   0.02    -0.10   0.12  -0.02
   6   1     0.02   0.01  -0.03    -0.07  -0.07   0.09    -0.02   0.05  -0.13
   7   6     0.03   0.02  -0.06    -0.07  -0.10  -0.04     0.01   0.02  -0.00
   8   7     0.04  -0.06  -0.08    -0.06  -0.13  -0.06     0.45   0.21   0.12
   9   1     0.46   0.36   0.11     0.19   0.14   0.06     0.10   0.03  -0.02
  10   1    -0.52   0.17  -0.00    -0.29   0.05   0.00     0.25   0.07  -0.04
  11   6    -0.04   0.01   0.07     0.06  -0.11  -0.07     0.03  -0.13   0.07
  12   6    -0.08  -0.08   0.12     0.21   0.01  -0.01     0.12  -0.24   0.31
  13  16    -0.26  -0.07  -0.02     0.28   0.29   0.05    -0.17   0.20  -0.05
  14   6    -0.09  -0.01   0.01     0.01   0.05   0.03    -0.11  -0.03   0.10
  15   6    -0.07   0.01   0.07     0.02  -0.07  -0.03    -0.06  -0.14   0.17
  16   1    -0.02   0.00   0.02    -0.01  -0.04  -0.01    -0.03  -0.06   0.06
  17   6    -0.05  -0.05   0.00     0.21  -0.03  -0.09     0.08  -0.10  -0.08
  18   1    -0.02  -0.02  -0.00     0.06  -0.05  -0.05     0.03  -0.06  -0.05
  19   1    -0.01  -0.01   0.01     0.12   0.04  -0.02     0.08   0.02  -0.02
  20   1    -0.01  -0.01   0.00     0.07  -0.05  -0.05     0.02  -0.07  -0.05
  21   1    -0.04  -0.03   0.05     0.10   0.00  -0.01     0.06  -0.08   0.11
  22   6     0.11   0.03  -0.09    -0.04   0.01   0.08     0.02   0.03  -0.05
  23   6     0.18  -0.01  -0.02    -0.04   0.15   0.07    -0.02  -0.04  -0.09
  24   6     0.13  -0.05   0.06    -0.05   0.14  -0.00    -0.02  -0.02  -0.04
  25   6    -0.02  -0.11   0.01    -0.14   0.03  -0.09     0.02   0.08   0.03
  26   6    -0.02  -0.00  -0.02    -0.04   0.04   0.03    -0.05   0.03  -0.04
  27   6     0.11   0.10  -0.05    -0.01   0.09   0.13    -0.07  -0.01  -0.10
  28   1     0.03   0.05  -0.02     0.01   0.04   0.05    -0.03  -0.01  -0.04
  29   1    -0.04   0.00  -0.01     0.00  -0.00  -0.00    -0.02   0.01  -0.01
  30   1    -0.04  -0.06   0.00    -0.06  -0.02  -0.06     0.02   0.04   0.03
  31   1     0.05  -0.03   0.03    -0.01   0.05   0.00    -0.01  -0.01  -0.01
  32   1     0.05  -0.02  -0.02    -0.04   0.06   0.03     0.01  -0.02  -0.03
  33   1    -0.01   0.03   0.03    -0.04  -0.06  -0.06     0.06  -0.09   0.01
                     16                     17                     18
                        a                      a                      a 
 Frequencies --   320.8070               364.4063               374.2745
 Red. masses --     9.6387                11.2612                 8.9448
 Frc consts  --     0.0000                 0.0000                 0.0000
 IR Inten    --     0.1538                 0.1133                 0.0182
 Raman Activ --     0.0000                 0.0000                 0.0000
 Depolar     --     0.0000                 0.0000                 0.0000
 Atom AN      X      Y      Z        X      Y      Z        X      Y      Z
   1   6     0.12   0.15   0.11    -0.26  -0.26  -0.09    -0.03  -0.03  -0.02
   2   1     0.11   0.15   0.12    -0.10  -0.11  -0.06    -0.01  -0.02  -0.01
   3   1     0.03  -0.03   0.01    -0.13  -0.11  -0.04    -0.01  -0.01  -0.00
   4   6     0.25  -0.25   0.17    -0.24  -0.07   0.12    -0.03  -0.00  -0.02
   5   1     0.15  -0.19   0.03    -0.06  -0.05   0.03    -0.01  -0.00  -0.01
   6   1     0.02  -0.08   0.18    -0.08  -0.02   0.05    -0.01  -0.00  -0.01
   7   6     0.05  -0.04  -0.05    -0.03   0.03   0.02    -0.01  -0.00  -0.01
   8   7     0.29  -0.36  -0.11     0.15  -0.15  -0.01    -0.03   0.02  -0.02
   9   1     0.07  -0.12  -0.14     0.08  -0.02  -0.07     0.04   0.04   0.01
  10   1     0.14  -0.16   0.02     0.03  -0.06   0.02    -0.06   0.03  -0.01
  11   6     0.00  -0.02   0.05    -0.04   0.23   0.15    -0.00   0.03   0.02
  12   6     0.01  -0.10   0.15    -0.15   0.09   0.16    -0.01   0.01   0.03
  13  16    -0.12   0.01  -0.05    -0.04  -0.22  -0.15     0.00  -0.02  -0.03
  14   6    -0.03  -0.03   0.03     0.24   0.06  -0.03     0.04  -0.00   0.01
  15   6    -0.02  -0.04   0.08     0.21   0.21   0.07     0.03   0.02   0.01
  16   1    -0.01  -0.02   0.03     0.11   0.10   0.03     0.02   0.01   0.00
  17   6    -0.02  -0.03  -0.01    -0.04   0.22   0.15    -0.00   0.03   0.02
  18   1    -0.00  -0.01  -0.00    -0.01   0.13   0.08     0.00   0.02   0.01
  19   1    -0.00  -0.00  -0.01    -0.10  -0.01   0.03    -0.01   0.00   0.00
  20   1    -0.01  -0.02  -0.01    -0.02   0.12   0.08    -0.00   0.01   0.01
  21   1     0.00  -0.04   0.05    -0.10   0.02   0.06    -0.01   0.00   0.01
  22   6    -0.03   0.02  -0.08     0.07   0.05  -0.12    -0.00  -0.01  -0.02
  23   6    -0.02   0.15  -0.09     0.09  -0.06  -0.10     0.27   0.27   0.23
  24   6    -0.09   0.11  -0.09     0.10  -0.04   0.03    -0.22  -0.27  -0.19
  25   6    -0.18   0.16  -0.07     0.01  -0.03   0.03    -0.00  -0.03   0.00
  26   6    -0.12   0.19   0.00    -0.04   0.03  -0.06     0.24   0.26   0.21
  27   6    -0.12   0.15  -0.04     0.06   0.10  -0.11    -0.23  -0.27  -0.22
  28   1    -0.04   0.06  -0.03     0.02   0.05  -0.04    -0.15  -0.17  -0.13
  29   1    -0.02   0.06   0.01    -0.04   0.01  -0.02     0.15   0.17   0.13
  30   1    -0.06   0.04  -0.02    -0.01  -0.01   0.03    -0.01  -0.01  -0.00
  31   1    -0.02   0.01  -0.01     0.04  -0.02   0.03    -0.14  -0.17  -0.13
  32   1     0.00   0.06  -0.01     0.05  -0.04  -0.04     0.15   0.17   0.14
  33   1    -0.08   0.12  -0.05     0.02  -0.07  -0.05     0.00  -0.01  -0.00
                     19                     20                     21
                        a                      a                      a 
 Frequencies --   412.0223               452.4158               493.5481
 Red. masses --    11.1966                11.0703                10.4525
 Frc consts  --     0.0000                 0.0000                 0.0000
 IR Inten    --     0.1618                 0.1174                 0.1479
 Raman Activ --     0.0000                 0.0000                 0.0000
 Depolar     --     0.0000                 0.0000                 0.0000
 Atom AN      X      Y      Z        X      Y      Z        X      Y      Z
   1   6    -0.00   0.04   0.03     0.02  -0.02   0.00     0.01   0.05  -0.01
   2   1     0.03   0.05   0.05    -0.01  -0.02  -0.02     0.00   0.01  -0.01
   3   1     0.04   0.02   0.02    -0.03  -0.03  -0.01     0.02   0.05   0.01
   4   6     0.05  -0.17  -0.18    -0.01   0.10   0.16     0.00   0.03  -0.10
   5   1     0.01  -0.10  -0.06     0.03  -0.00   0.04    -0.07   0.17   0.01
   6   1     0.00  -0.05  -0.01     0.00   0.04   0.09     0.01  -0.02  -0.20
   7   6    -0.06  -0.04  -0.26     0.00   0.12   0.08     0.01  -0.23   0.21
   8   7    -0.02   0.27  -0.23    -0.09  -0.13  -0.01     0.02  -0.09   0.39
   9   1    -0.07   0.03  -0.02    -0.01  -0.03  -0.03     0.02  -0.01   0.13
  10   1     0.08   0.10  -0.13    -0.08  -0.07   0.07     0.01   0.01   0.06
  11   6    -0.07   0.16  -0.07    -0.04   0.06  -0.18    -0.02  -0.05   0.10
  12   6     0.03  -0.09   0.29     0.05  -0.08   0.04    -0.03   0.11  -0.06
  13  16    -0.06   0.02  -0.19    -0.06   0.14  -0.14     0.11   0.03  -0.06
  14   6     0.17  -0.13   0.24     0.14  -0.35   0.53     0.08  -0.14   0.17
  15   6     0.07   0.07   0.04    -0.14   0.14  -0.30    -0.07   0.12  -0.19
  16   1     0.04   0.04   0.01    -0.07   0.07  -0.15    -0.03   0.08  -0.10
  17   6     0.01   0.08   0.03    -0.02  -0.05  -0.02    -0.01  -0.03   0.00
  18   1     0.03   0.12   0.02     0.05   0.14  -0.01     0.02   0.05   0.00
  19   1    -0.04   0.03  -0.03    -0.02   0.04  -0.07    -0.01   0.00  -0.02
  20   1    -0.04  -0.01  -0.03    -0.10  -0.11  -0.11    -0.03  -0.04  -0.03
  21   1    -0.00  -0.04   0.11     0.05  -0.05   0.06     0.00   0.01   0.01
  22   6    -0.25  -0.19  -0.00     0.14   0.18   0.09    -0.09  -0.31  -0.25
  23   6    -0.09   0.01   0.17     0.03  -0.03  -0.01     0.06   0.02  -0.18
  24   6     0.04   0.11   0.10    -0.03  -0.10  -0.03     0.12   0.14   0.03
  25   6    -0.04  -0.18  -0.11     0.12   0.05   0.09    -0.26  -0.03  -0.13
  26   6     0.15  -0.03   0.07    -0.04  -0.06  -0.07     0.00   0.16   0.13
  27   6     0.06  -0.04   0.18     0.02   0.00  -0.05    -0.05   0.02  -0.05
  28   1     0.07  -0.01   0.11    -0.02  -0.03  -0.04     0.02   0.10  -0.00
  29   1     0.09   0.01   0.04    -0.06  -0.05  -0.04     0.07   0.11   0.09
  30   1    -0.03  -0.08  -0.08     0.05   0.03   0.04    -0.09  -0.03  -0.04
  31   1     0.04   0.10   0.04    -0.04  -0.06  -0.04     0.11   0.07   0.09
  32   1    -0.01   0.04   0.08    -0.00  -0.04  -0.03     0.05   0.06  -0.01
  33   1    -0.09   0.02   0.02     0.06   0.00  -0.02    -0.02  -0.00   0.03
                     22                     23                     24
                        a                      a                      a 
 Frequencies --   523.9724               548.6393               589.4384
 Red. masses --    14.8543                10.5730                11.1744
 Frc consts  --     0.0000                 0.0000                 0.0000
 IR Inten    --     0.1064                 0.1615                 0.0615
 Raman Activ --     0.0000                 0.0000                 0.0000
 Depolar     --     0.0000                 0.0000                 0.0000
 Atom AN      X      Y      Z        X      Y      Z        X      Y      Z
   1   6     0.01   0.01   0.01    -0.04  -0.04  -0.02    -0.01   0.00   0.00
   2   1    -0.01  -0.02  -0.00     0.03   0.03   0.01    -0.01  -0.01  -0.00
   3   1    -0.02  -0.03  -0.01     0.04   0.05   0.02    -0.01  -0.01  -0.00
   4   6    -0.02   0.12   0.13     0.03  -0.27  -0.26    -0.00   0.02   0.02
   5   1     0.02  -0.00   0.03    -0.02  -0.04  -0.07    -0.00   0.01   0.01
   6   1     0.00   0.05   0.08    -0.01  -0.10  -0.12    -0.00   0.00  -0.00
   7   6    -0.11   0.15   0.01     0.09  -0.24  -0.08     0.03   0.00   0.01
   8   7     0.02  -0.05  -0.06     0.01   0.11   0.05    -0.02  -0.00   0.02
   9   1     0.04  -0.00  -0.09    -0.04   0.02   0.11    -0.01  -0.00   0.02
  10   1     0.00  -0.05   0.03     0.05   0.10  -0.08    -0.01  -0.00   0.01
  11   6    -0.12   0.18   0.05    -0.02   0.09   0.20     0.01  -0.00   0.01
  12   6     0.04   0.22   0.20    -0.05   0.23   0.09     0.00   0.00  -0.01
  13  16     0.43   0.08  -0.10     0.15  -0.04  -0.08    -0.01  -0.00   0.00
  14   6    -0.18  -0.21  -0.14    -0.05  -0.13   0.00    -0.00  -0.00   0.00
  15   6    -0.14   0.04   0.18    -0.10   0.19   0.05    -0.00   0.01  -0.00
  16   1     0.03   0.05   0.08     0.01   0.11  -0.00    -0.00   0.00  -0.00
  17   6    -0.25  -0.37  -0.15    -0.11  -0.15  -0.05    -0.01  -0.01  -0.00
  18   1    -0.07  -0.12  -0.04    -0.03  -0.03  -0.01    -0.00  -0.00  -0.00
  19   1    -0.06  -0.10  -0.04    -0.04  -0.05  -0.02    -0.00  -0.00  -0.00
  20   1    -0.06  -0.10  -0.04    -0.04  -0.04  -0.02    -0.00  -0.00  -0.00
  21   1    -0.03   0.06   0.06    -0.06   0.05   0.05    -0.00  -0.00  -0.00
  22   6    -0.14   0.03  -0.10     0.26   0.04   0.18    -0.08  -0.06   0.14
  23   6    -0.03  -0.05   0.04     0.10   0.10  -0.01     0.07  -0.31   0.30
  24   6     0.03  -0.01   0.10    -0.08  -0.07  -0.18     0.41  -0.17  -0.22
  25   6     0.05  -0.16  -0.01     0.02   0.28   0.08     0.07   0.05  -0.17
  26   6     0.09   0.04  -0.03    -0.17  -0.12  -0.01    -0.06   0.34  -0.33
  27   6     0.04   0.00  -0.10     0.01   0.05   0.17    -0.37   0.16   0.19
  28   1     0.04  -0.00   0.00    -0.06  -0.01  -0.02    -0.08   0.00   0.09
  29   1     0.02   0.06   0.02    -0.08  -0.13  -0.08     0.04   0.06  -0.10
  30   1     0.01  -0.05  -0.00     0.01   0.08   0.02    -0.06  -0.02   0.09
  31   1     0.03   0.04   0.03    -0.08  -0.12  -0.09     0.10   0.00  -0.09
  32   1     0.04  -0.02   0.02    -0.05   0.00  -0.03    -0.04  -0.05   0.10
  33   1     0.05   0.01  -0.02    -0.12  -0.02   0.04     0.01   0.00  -0.01
                     25                     26                     27
                        a                      a                      a 
 Frequencies --   644.9984               648.9218               680.4631
 Red. masses --    10.7919                11.5033                 9.1844
 Frc consts  --     0.0000                 0.0000                 0.0000
 IR Inten    --     0.2069                 0.2124                 0.1709
 Raman Activ --     0.0000                 0.0000                 0.0000
 Depolar     --     0.0000                 0.0000                 0.0000
 Atom AN      X      Y      Z        X      Y      Z        X      Y      Z
   1   6    -0.00  -0.01  -0.00    -0.07  -0.03   0.01     0.03  -0.01  -0.02
   2   1     0.00   0.00   0.02    -0.06  -0.06  -0.02     0.04   0.04   0.02
   3   1     0.03   0.00   0.01    -0.07  -0.07  -0.02     0.05   0.05   0.01
   4   6     0.00  -0.04  -0.06    -0.06   0.13   0.14     0.03  -0.14  -0.14
   5   1     0.04  -0.08  -0.03    -0.02  -0.02   0.02     0.02  -0.03  -0.04
   6   1    -0.01  -0.00   0.06    -0.04   0.02   0.07     0.02  -0.03  -0.03
   7   6    -0.08   0.06  -0.10     0.31   0.11  -0.08    -0.12  -0.09   0.02
   8   7     0.09   0.04  -0.10    -0.00   0.10  -0.30    -0.00  -0.03   0.17
   9   1     0.08   0.04  -0.09    -0.07  -0.02  -0.02     0.01  -0.00   0.04
  10   1     0.08   0.03  -0.07    -0.07  -0.00  -0.02     0.04   0.02  -0.00
  11   6     0.21  -0.39   0.61     0.26   0.02   0.15    -0.14   0.03  -0.11
  12   6    -0.07   0.11  -0.18     0.06   0.02  -0.08    -0.03   0.01   0.06
  13  16     0.01   0.01  -0.01    -0.14  -0.03   0.03     0.08  -0.02  -0.04
  14   6     0.03  -0.04   0.08    -0.04  -0.06   0.01    -0.01   0.04   0.01
  15   6    -0.06   0.11  -0.18    -0.04   0.14   0.04    -0.01  -0.05   0.01
  16   1    -0.07   0.12  -0.20    -0.03   0.05  -0.03     0.02  -0.03   0.04
  17   6     0.01   0.00   0.02    -0.09  -0.12  -0.04     0.04   0.07   0.02
  18   1     0.01   0.00   0.00    -0.03  -0.03  -0.01     0.01   0.01   0.00
  19   1     0.01   0.00   0.01    -0.04  -0.04  -0.01     0.03   0.03   0.01
  20   1    -0.00  -0.00   0.00    -0.03  -0.03  -0.01     0.01   0.01   0.00
  21   1    -0.01   0.01  -0.02    -0.02  -0.00  -0.00    -0.00   0.00   0.01
  22   6    -0.13   0.15  -0.01     0.24  -0.05   0.15     0.21   0.36   0.21
  23   6    -0.13  -0.02   0.12    -0.04  -0.11  -0.20    -0.17  -0.14  -0.08
  24   6    -0.10   0.01   0.13     0.18   0.17  -0.01     0.13   0.19   0.21
  25   6     0.11  -0.15   0.02    -0.26   0.03  -0.14    -0.06  -0.19  -0.08
  26   6     0.06   0.07  -0.12     0.08   0.02   0.29     0.19   0.25   0.07
  27   6     0.01   0.04  -0.11    -0.16  -0.24   0.07    -0.11  -0.09  -0.18
  28   1     0.02  -0.03   0.01    -0.07  -0.05  -0.01    -0.15  -0.18  -0.16
  29   1    -0.02   0.05  -0.02     0.09  -0.02   0.07    -0.08  -0.03  -0.07
  30   1     0.03  -0.04   0.00    -0.07  -0.00  -0.07    -0.14  -0.18  -0.12
  31   1    -0.04   0.06   0.00     0.08   0.02   0.04    -0.08  -0.05  -0.05
  32   1    -0.00  -0.03   0.03    -0.07  -0.01  -0.05    -0.14  -0.19  -0.14
  33   1    -0.03  -0.00   0.01     0.10  -0.00  -0.04    -0.09  -0.01   0.04
                     28                     29                     30
                        a                      a                      a 
 Frequencies --   701.8949               739.0514               759.5383
 Red. masses --    17.4406                 2.5474                 5.8564
 Frc consts  --     0.0000                 0.0000                 0.0000
 IR Inten    --     0.3430                 0.1270                 0.2262
 Raman Activ --     0.0000                 0.0000                 0.0000
 Depolar     --     0.0000                 0.0000                 0.0000
 Atom AN      X      Y      Z        X      Y      Z        X      Y      Z
   1   6     0.02   0.02   0.01    -0.00  -0.00  -0.00     0.04   0.06   0.02
   2   1    -0.01  -0.01  -0.00    -0.02  -0.02   0.01    -0.02  -0.02  -0.01
   3   1    -0.01  -0.01  -0.00     0.02  -0.00   0.00    -0.01  -0.02  -0.01
   4   6    -0.01   0.06   0.06    -0.01   0.02  -0.02    -0.03   0.16   0.12
   5   1     0.00   0.01   0.01     0.03  -0.01  -0.00     0.01   0.03   0.03
   6   1    -0.00   0.02   0.03    -0.03  -0.01   0.02    -0.00   0.05   0.06
   7   6     0.02   0.01  -0.01     0.01  -0.00   0.00    -0.16   0.02  -0.03
   8   7     0.00   0.01  -0.05     0.00   0.00  -0.00     0.01   0.03  -0.10
   9   1    -0.00   0.00  -0.01    -0.00  -0.00   0.00     0.04   0.02  -0.09
  10   1    -0.01  -0.00  -0.00     0.00  -0.00   0.00     0.05   0.00  -0.04
  11   6     0.01  -0.05  -0.01    -0.00   0.01  -0.02    -0.09  -0.10   0.09
  12   6     0.01  -0.01  -0.01    -0.10   0.19  -0.30    -0.09   0.00   0.01
  13  16     0.31  -0.37  -0.34     0.00  -0.01   0.01     0.06   0.05   0.01
  14   6    -0.33   0.25   0.28    -0.00   0.00   0.00     0.03  -0.01  -0.01
  15   6    -0.34   0.06   0.16     0.02  -0.03   0.05     0.02  -0.07  -0.06
  16   1    -0.21  -0.06   0.02     0.04  -0.08   0.13     0.00   0.01  -0.05
  17   6     0.10   0.27   0.13    -0.00  -0.00   0.00     0.03   0.03   0.01
  18   1     0.04  -0.02  -0.03     0.00  -0.00   0.00     0.01   0.01   0.00
  19   1     0.19   0.20   0.06     0.00   0.00  -0.00     0.01   0.01   0.00
  20   1     0.04  -0.03  -0.03     0.00  -0.00   0.00     0.01   0.01   0.00
  21   1    -0.06  -0.01   0.01     0.27  -0.47   0.74    -0.00  -0.00   0.01
  22   6     0.01  -0.03  -0.00    -0.01  -0.00  -0.00    -0.16  -0.26  -0.17
  23   6     0.02  -0.00  -0.01    -0.00   0.00   0.00     0.16   0.07   0.02
  24   6     0.01  -0.01  -0.03    -0.00  -0.00   0.00     0.16   0.04  -0.05
  25   6    -0.02   0.02  -0.01     0.00  -0.00   0.00     0.03   0.20   0.07
  26   6    -0.01  -0.03   0.02    -0.00   0.00  -0.00     0.03  -0.02   0.16
  27   6    -0.00  -0.02   0.02     0.00   0.00  -0.00     0.10   0.05   0.16
  28   1     0.01   0.02   0.02    -0.00   0.00  -0.00    -0.15  -0.16  -0.12
  29   1     0.02   0.00   0.01     0.00   0.00   0.00    -0.17  -0.27  -0.16
  30   1     0.01   0.02   0.01     0.00   0.00   0.00    -0.26  -0.24  -0.21
  31   1     0.02   0.00   0.01     0.00   0.00   0.00    -0.15  -0.26  -0.18
  32   1     0.01   0.02   0.01     0.00   0.00   0.00    -0.13  -0.15  -0.14
  33   1     0.04   0.01  -0.01     0.01  -0.01   0.01     0.09   0.02  -0.02
                     31                     32                     33
                        a                      a                      a 
 Frequencies --   775.8851               830.8712               831.6285
 Red. masses --     9.5969                 3.5623                 4.1642
 Frc consts  --     0.0000                 0.0000                 0.0000
 IR Inten    --     0.1815                 0.0881                 0.2991
 Raman Activ --     0.0000                 0.0000                 0.0000
 Depolar     --     0.0000                 0.0000                 0.0000
 Atom AN      X      Y      Z        X      Y      Z        X      Y      Z
   1   6     0.07   0.04  -0.02     0.01  -0.01   0.01    -0.07   0.03  -0.10
   2   1    -0.04  -0.02   0.06     0.04   0.02  -0.02    -0.30  -0.18   0.18
   3   1     0.13   0.02   0.02    -0.04  -0.00  -0.00     0.38   0.01   0.04
   4   6    -0.05   0.09  -0.05     0.01  -0.02   0.03    -0.09   0.13  -0.26
   5   1     0.14  -0.10  -0.03    -0.04   0.03   0.01     0.37  -0.23  -0.10
   6   1    -0.03   0.06   0.20     0.03   0.00  -0.05    -0.24  -0.06   0.34
   7   6    -0.35   0.04  -0.04     0.00  -0.01   0.01     0.09   0.06  -0.00
   8   7    -0.02   0.02  -0.03    -0.01  -0.01   0.00    -0.03  -0.07   0.23
   9   1     0.10   0.06  -0.12    -0.01  -0.00   0.01    -0.01  -0.02   0.08
  10   1     0.11   0.03  -0.08    -0.01   0.00  -0.00     0.02  -0.01   0.04
  11   6    -0.30  -0.15   0.08    -0.04   0.07  -0.11     0.13   0.08  -0.07
  12   6    -0.23   0.02   0.08    -0.01   0.03  -0.03     0.13  -0.04  -0.05
  13  16     0.15   0.12   0.02    -0.01   0.02  -0.03    -0.06  -0.04  -0.01
  14   6     0.07  -0.02  -0.03    -0.00   0.02  -0.04    -0.02   0.01   0.01
  15   6     0.05  -0.18  -0.12     0.13  -0.23   0.37     0.00   0.06   0.10
  16   1     0.04   0.01  -0.06    -0.26   0.42  -0.71    -0.05   0.05  -0.06
  17   6     0.07   0.07   0.02    -0.00   0.00  -0.01    -0.03  -0.04  -0.01
  18   1     0.02   0.02   0.01    -0.01  -0.02   0.00    -0.01  -0.01  -0.00
  19   1     0.02   0.02   0.01     0.00  -0.01   0.02    -0.01  -0.01  -0.00
  20   1     0.02   0.02   0.01     0.02   0.02   0.02    -0.01  -0.01  -0.00
  21   1    -0.03   0.01   0.02     0.04  -0.05   0.09    -0.00   0.02  -0.05
  22   6     0.18   0.09   0.12     0.02   0.01   0.01    -0.06  -0.07  -0.05
  23   6     0.09  -0.09  -0.13    -0.00  -0.00  -0.00     0.00   0.01   0.01
  24   6     0.17  -0.08  -0.18    -0.00   0.00   0.00    -0.01   0.01   0.02
  25   6    -0.18   0.08  -0.08    -0.00  -0.00  -0.00     0.03   0.01   0.02
  26   6    -0.05  -0.15   0.17    -0.00   0.00  -0.00     0.01   0.02  -0.01
  27   6    -0.04  -0.14   0.06    -0.00  -0.00  -0.01     0.01   0.02   0.00
  28   1     0.05   0.07   0.06     0.01   0.01   0.00    -0.01  -0.01  -0.01
  29   1     0.14   0.03   0.12     0.00   0.01   0.00    -0.03  -0.02  -0.03
  30   1     0.08   0.16   0.10     0.00   0.00   0.00    -0.04  -0.05  -0.04
  31   1     0.17   0.03   0.08    -0.00  -0.00  -0.00    -0.03  -0.01  -0.02
  32   1     0.07   0.07   0.03     0.00  -0.00  -0.00     0.00   0.00   0.00
  33   1     0.01  -0.01   0.03    -0.01   0.01  -0.01     0.02  -0.09   0.10
                     34                     35                     36
                        a                      a                      a 
 Frequencies --   868.0303               883.0404               905.5737
 Red. masses --    13.6571                 3.3107                 4.4217
 Frc consts  --     0.0000                 0.0000                 0.0000
 IR Inten    --     0.4980                 0.0303                 0.1896
 Raman Activ --     0.0000                 0.0000                 0.0000
 Depolar     --     0.0000                 0.0000                 0.0000
 Atom AN      X      Y      Z        X      Y      Z        X      Y      Z
   1   6     0.02   0.01   0.01    -0.00   0.00  -0.00     0.03   0.08   0.02
   2   1     0.01   0.01  -0.00    -0.01  -0.00   0.00    -0.08  -0.07   0.00
   3   1    -0.01  -0.00  -0.00     0.01   0.00   0.00     0.03  -0.04  -0.01
   4   6    -0.02   0.04   0.04     0.00  -0.00  -0.01    -0.03   0.08   0.07
   5   1     0.01   0.00   0.01     0.01   0.00   0.00     0.03   0.01   0.02
   6   1     0.03   0.04   0.02    -0.01  -0.00   0.01    -0.07  -0.03   0.02
   7   6    -0.11  -0.03  -0.03    -0.01  -0.00   0.00     0.07  -0.17  -0.02
   8   7    -0.03  -0.02   0.02     0.02   0.01  -0.00     0.07   0.00  -0.08
   9   1     0.05   0.03  -0.03    -0.02  -0.01   0.00    -0.08  -0.05   0.11
  10   1     0.05   0.02  -0.04    -0.00  -0.00   0.01    -0.04   0.04  -0.05
  11   6    -0.06  -0.08  -0.01    -0.01  -0.01  -0.00    -0.07  -0.02   0.01
  12   6     0.51   0.57   0.17     0.02   0.03   0.01    -0.05   0.03   0.05
  13  16    -0.30  -0.26  -0.05    -0.01  -0.01  -0.00     0.02   0.02   0.00
  14   6     0.01  -0.01  -0.01     0.00  -0.00  -0.00     0.01  -0.01  -0.01
  15   6    -0.03  -0.17  -0.10    -0.00  -0.01  -0.01     0.00  -0.05  -0.03
  16   1    -0.01  -0.06  -0.02     0.00  -0.01   0.01     0.01  -0.00  -0.01
  17   6     0.04   0.03   0.01     0.00   0.00  -0.00     0.02   0.02   0.01
  18   1     0.01   0.02   0.01     0.00   0.00   0.00     0.00   0.01   0.00
  19   1    -0.00  -0.00   0.00    -0.00  -0.00   0.00     0.00   0.00   0.00
  20   1     0.01   0.02   0.01     0.00   0.00   0.00     0.00   0.01   0.00
  21   1     0.30   0.18   0.00     0.01   0.01   0.00    -0.03   0.01   0.01
  22   6    -0.00   0.02   0.00     0.00   0.01   0.00    -0.00  -0.08  -0.02
  23   6     0.01  -0.01  -0.01     0.10   0.11   0.09     0.11   0.16   0.09
  24   6     0.02  -0.01  -0.03     0.15   0.16   0.13    -0.06   0.04   0.07
  25   6    -0.02   0.01  -0.01     0.02   0.03   0.01    -0.14  -0.24  -0.15
  26   6    -0.00  -0.02   0.03    -0.14  -0.15  -0.12    -0.03   0.02  -0.10
  27   6     0.01  -0.00   0.01    -0.13  -0.15  -0.12     0.10   0.16   0.12
  28   1    -0.01  -0.01  -0.01     0.26   0.29   0.23    -0.24  -0.26  -0.21
  29   1     0.00  -0.01   0.00     0.26   0.28   0.23     0.08   0.12   0.06
  30   1     0.01   0.02   0.01    -0.03  -0.03  -0.03     0.30   0.31   0.26
  31   1     0.02   0.00   0.01    -0.28  -0.31  -0.25    -0.02   0.02   0.01
  32   1     0.01   0.01   0.01    -0.20  -0.24  -0.19    -0.23  -0.27  -0.23
  33   1     0.02   0.01  -0.01    -0.00  -0.00   0.01     0.14   0.01  -0.02
                     37                     38                     39
                        a                      a                      a 
 Frequencies --   912.4223               932.2608               934.9340
 Red. masses --     7.7567                 3.3947                 3.5438
 Frc consts  --     0.0000                 0.0000                 0.0000
 IR Inten    --     0.3762                 0.0341                 0.1160
 Raman Activ --     0.0000                 0.0000                 0.0000
 Depolar     --     0.0000                 0.0000                 0.0000
 Atom AN      X      Y      Z        X      Y      Z        X      Y      Z
   1   6    -0.07  -0.14  -0.03     0.01   0.01   0.01    -0.02  -0.02  -0.01
   2   1     0.14   0.12  -0.00     0.00   0.00  -0.01     0.01   0.01   0.01
   3   1    -0.03   0.07   0.01    -0.01  -0.01  -0.00     0.02   0.01   0.00
   4   6     0.05  -0.13  -0.12    -0.01   0.01   0.01     0.01  -0.02  -0.02
   5   1    -0.05  -0.03  -0.04    -0.01  -0.01  -0.00     0.01   0.00  -0.00
   6   1     0.13   0.06  -0.04     0.00   0.00  -0.00     0.01   0.00  -0.00
   7   6    -0.17   0.34   0.02     0.00  -0.01  -0.02    -0.01   0.04   0.03
   8   7    -0.12  -0.01   0.21    -0.02  -0.01   0.01     0.06   0.03  -0.02
   9   1     0.16   0.08  -0.23     0.02   0.01   0.00    -0.05  -0.04   0.00
  10   1     0.11  -0.09   0.10     0.02   0.01  -0.02    -0.05  -0.03   0.06
  11   6     0.20   0.06  -0.01     0.00   0.00  -0.00    -0.01  -0.01   0.01
  12   6     0.14  -0.13  -0.14    -0.00  -0.01  -0.00    -0.00   0.02   0.01
  13  16    -0.04  -0.03  -0.01     0.00   0.00   0.00    -0.00  -0.00  -0.00
  14   6    -0.02   0.03   0.03    -0.00   0.00  -0.00    -0.00  -0.00   0.00
  15   6    -0.00   0.17   0.11     0.00   0.00   0.01     0.00  -0.02  -0.01
  16   1    -0.03   0.02   0.03     0.00   0.01  -0.00    -0.01  -0.01  -0.01
  17   6    -0.05  -0.06  -0.02    -0.00  -0.00   0.00    -0.00   0.00   0.00
  18   1    -0.01  -0.01  -0.00     0.00   0.00   0.00    -0.00  -0.00  -0.00
  19   1    -0.02  -0.02  -0.01    -0.00   0.00  -0.00     0.00   0.00   0.00
  20   1    -0.01  -0.02  -0.00    -0.00  -0.00  -0.00     0.00  -0.00  -0.00
  21   1     0.08  -0.04  -0.04    -0.00  -0.00  -0.00     0.00   0.01   0.00
  22   6    -0.13   0.05  -0.07     0.04   0.03   0.03     0.00   0.03   0.01
  23   6     0.08  -0.01   0.11    -0.08  -0.08  -0.08     0.16   0.16   0.16
  24   6     0.17  -0.02  -0.10    -0.01  -0.00   0.00    -0.17  -0.20  -0.18
  25   6    -0.17   0.02  -0.10     0.12   0.12   0.10     0.06   0.10   0.06
  26   6    -0.03  -0.14   0.15    -0.19  -0.20  -0.17     0.03   0.02   0.04
  27   6     0.13   0.03   0.04     0.12   0.14   0.11    -0.07  -0.10  -0.08
  28   1    -0.10  -0.15  -0.10    -0.26  -0.29  -0.23     0.08   0.09   0.07
  29   1     0.06  -0.01   0.07     0.36   0.40   0.31     0.02   0.01   0.01
  30   1     0.10   0.17   0.10    -0.23  -0.26  -0.21    -0.17  -0.17  -0.15
  31   1     0.03  -0.06  -0.03     0.06   0.07   0.06     0.34   0.38   0.30
  32   1    -0.09  -0.14  -0.09     0.07   0.08   0.06    -0.30  -0.36  -0.29
  33   1    -0.26  -0.02   0.04     0.02   0.01  -0.01    -0.05  -0.01   0.02
                     40                     41                     42
                        a                      a                      a 
 Frequencies --   948.5045               984.1936              1002.5066
 Red. masses --     5.9749                10.0724                 5.4084
 Frc consts  --     0.0000                 0.0000                 0.0000
 IR Inten    --     0.6549                 0.1481                 0.2193
 Raman Activ --     0.0000                 0.0000                 0.0000
 Depolar     --     0.0000                 0.0000                 0.0000
 Atom AN      X      Y      Z        X      Y      Z        X      Y      Z
   1   6     0.12   0.13   0.09    -0.06  -0.08  -0.04    -0.02   0.01   0.04
   2   1    -0.01  -0.04  -0.07     0.04   0.05   0.03    -0.01  -0.02  -0.03
   3   1    -0.12  -0.08  -0.03     0.03   0.05   0.01    -0.07  -0.04  -0.01
   4   6    -0.07   0.09   0.10     0.03   0.00  -0.01     0.03  -0.01  -0.05
   5   1    -0.10  -0.06  -0.01     0.04   0.04   0.01    -0.05  -0.08  -0.05
   6   1    -0.03   0.01   0.03     0.05   0.05   0.01    -0.01  -0.02  -0.01
   7   6    -0.07  -0.21  -0.21    -0.06   0.12   0.07     0.14   0.08  -0.07
   8   7    -0.29  -0.19   0.18    -0.07   0.05  -0.02    -0.07  -0.04   0.10
   9   1     0.28   0.18  -0.05     0.09   0.06  -0.18     0.05   0.03  -0.01
  10   1     0.38   0.16  -0.36     0.06  -0.04   0.03     0.06   0.00  -0.02
  11   6     0.10   0.05  -0.07     0.01   0.00   0.00    -0.00   0.04   0.02
  12   6     0.08  -0.12  -0.10     0.01  -0.00  -0.01    -0.07   0.06   0.06
  13  16    -0.01   0.00   0.01    -0.00  -0.01  -0.00    -0.03  -0.01   0.00
  14   6     0.01   0.00  -0.00    -0.00   0.01   0.01     0.02   0.12   0.06
  15   6    -0.02   0.18   0.12     0.02  -0.01  -0.01     0.30  -0.13  -0.18
  16   1     0.03   0.07   0.05     0.00  -0.00  -0.00     0.18   0.05  -0.04
  17   6     0.01  -0.03  -0.02    -0.02  -0.00   0.01    -0.38   0.00   0.14
  18   1    -0.00   0.02   0.02    -0.00  -0.02  -0.01    -0.05  -0.30  -0.21
  19   1    -0.04  -0.04  -0.01     0.02   0.02   0.00     0.35   0.35   0.09
  20   1    -0.01   0.02   0.01    -0.00  -0.02  -0.01    -0.03  -0.34  -0.16
  21   1     0.01  -0.04  -0.02     0.03   0.00  -0.01    -0.04   0.01   0.02
  22   6     0.06   0.01   0.03     0.12  -0.15   0.02    -0.01  -0.01  -0.02
  23   6     0.02   0.04   0.01     0.14   0.25  -0.43    -0.01  -0.01   0.03
  24   6    -0.08  -0.01   0.01    -0.12  -0.00   0.13    -0.01   0.01   0.00
  25   6     0.03  -0.01   0.01     0.24  -0.27   0.07    -0.01   0.01  -0.01
  26   6     0.02   0.03  -0.03     0.05   0.08  -0.16     0.00  -0.01   0.01
  27   6    -0.06  -0.03  -0.00    -0.36   0.02   0.38     0.01  -0.00  -0.01
  28   1     0.04   0.06   0.05    -0.08  -0.03   0.13     0.00   0.00  -0.00
  29   1    -0.00  -0.01  -0.02     0.08  -0.03  -0.06     0.00  -0.01  -0.00
  30   1    -0.00  -0.02  -0.02     0.06  -0.08   0.02     0.00   0.01  -0.01
  31   1     0.03   0.06   0.05     0.00  -0.06   0.08    -0.01   0.01  -0.01
  32   1    -0.03  -0.07  -0.06     0.05   0.03  -0.15    -0.00  -0.02  -0.00
  33   1     0.26   0.07  -0.09    -0.16  -0.03   0.04     0.06   0.02  -0.03
                     43                     44                     45
                        a                      a                      a 
 Frequencies --  1021.8483              1032.4414              1036.7116
 Red. masses --     6.8557                 4.2286                 6.0636
 Frc consts  --     0.0000                 0.0000                 0.0000
 IR Inten    --     0.4361                 0.0759                 0.4530
 Raman Activ --     0.0000                 0.0000                 0.0000
 Depolar     --     0.0000                 0.0000                 0.0000
 Atom AN      X      Y      Z        X      Y      Z        X      Y      Z
   1   6     0.03   0.03   0.15     0.03   0.01   0.01    -0.20  -0.03  -0.06
   2   1     0.06   0.00  -0.11     0.02   0.01  -0.01    -0.15  -0.08   0.07
   3   1    -0.25  -0.10  -0.03    -0.02  -0.00  -0.00     0.10   0.01   0.01
   4   6    -0.01  -0.01  -0.23    -0.04   0.01  -0.01     0.21  -0.06   0.07
   5   1    -0.19  -0.33  -0.18    -0.02  -0.03  -0.01     0.10   0.19   0.09
   6   1     0.02   0.05   0.06     0.01   0.03   0.03    -0.07  -0.17  -0.16
   7   6     0.23   0.28  -0.26    -0.06  -0.01  -0.02     0.33   0.08   0.11
   8   7    -0.00  -0.05   0.30     0.04  -0.01   0.01    -0.24   0.03  -0.04
   9   1    -0.02  -0.03   0.08    -0.04  -0.03   0.05     0.25   0.17  -0.30
  10   1    -0.04  -0.07   0.16    -0.04   0.00   0.01     0.22  -0.03  -0.07
  11   6    -0.05   0.00   0.05    -0.00   0.00  -0.02    -0.03   0.06  -0.01
  12   6    -0.09   0.10   0.09     0.02  -0.02  -0.02    -0.08   0.11   0.10
  13  16     0.04   0.03   0.01    -0.01  -0.00  -0.01     0.03   0.03   0.01
  14   6    -0.02  -0.05  -0.02     0.09  -0.15   0.25     0.00  -0.05   0.03
  15   6    -0.08  -0.20  -0.10     0.00   0.05   0.01    -0.04  -0.22  -0.12
  16   1    -0.15  -0.16  -0.05     0.03   0.02   0.03    -0.14  -0.18  -0.05
  17   6     0.13   0.03  -0.03    -0.14   0.21  -0.34     0.06   0.06  -0.08
  18   1     0.02   0.09   0.06    -0.28  -0.51  -0.02    -0.03  -0.04   0.03
  19   1    -0.09  -0.09  -0.02     0.08  -0.10   0.19    -0.03  -0.06   0.02
  20   1     0.02   0.10   0.05     0.36   0.32   0.27     0.07   0.11   0.07
  21   1    -0.18   0.01   0.08     0.04  -0.00  -0.01    -0.23   0.01   0.08
  22   6    -0.03  -0.01  -0.04    -0.01   0.01   0.00     0.05  -0.05  -0.01
  23   6     0.03   0.03  -0.04     0.01   0.01  -0.02    -0.03  -0.06   0.13
  24   6    -0.01   0.01   0.01     0.01  -0.01  -0.01    -0.06   0.03   0.03
  25   6     0.03  -0.03  -0.00     0.01  -0.01   0.01    -0.03   0.05  -0.03
  26   6     0.02  -0.03   0.03     0.00  -0.00   0.00    -0.00   0.02  -0.02
  27   6    -0.07   0.00   0.08    -0.01   0.00   0.01     0.05   0.00  -0.06
  28   1    -0.01  -0.02   0.04    -0.00  -0.01   0.01    -0.01   0.03  -0.05
  29   1     0.03  -0.04  -0.01     0.00  -0.00   0.00    -0.00   0.01  -0.00
  30   1     0.02  -0.00  -0.03    -0.00  -0.00   0.01     0.00   0.02  -0.04
  31   1    -0.01  -0.01   0.00     0.01  -0.01   0.00    -0.03   0.05  -0.02
  32   1     0.03  -0.02  -0.03     0.00   0.01  -0.00    -0.03  -0.03   0.02
  33   1     0.17   0.07  -0.11     0.01   0.01  -0.01    -0.05  -0.06   0.06
                     46                     47                     48
                        a                      a                      a 
 Frequencies --  1067.4305              1085.4685              1099.4919
 Red. masses --     5.5315                 6.9092                 6.3931
 Frc consts  --     0.0000                 0.0000                 0.0000
 IR Inten    --     0.2030                 0.1281                 0.0970
 Raman Activ --     0.0000                 0.0000                 0.0000
 Depolar     --     0.0000                 0.0000                 0.0000
 Atom AN      X      Y      Z        X      Y      Z        X      Y      Z
   1   6     0.25   0.28  -0.02     0.06   0.02  -0.01    -0.36   0.07   0.17
   2   1    -0.13  -0.13  -0.02     0.02   0.01  -0.00    -0.25  -0.16  -0.02
   3   1     0.13  -0.07  -0.03     0.02   0.01  -0.00    -0.18  -0.16  -0.01
   4   6    -0.20  -0.37   0.01    -0.06  -0.03  -0.00     0.46   0.00  -0.14
   5   1    -0.13   0.01   0.02    -0.03  -0.02  -0.01     0.11   0.02  -0.03
   6   1    -0.23  -0.31  -0.21    -0.02  -0.01  -0.00     0.09  -0.04  -0.09
   7   6    -0.12   0.06   0.07    -0.03   0.02   0.02    -0.00   0.04  -0.01
   8   7     0.01   0.16   0.00     0.00   0.03  -0.01     0.02   0.03   0.02
   9   1     0.04   0.02  -0.29     0.00   0.00  -0.03    -0.00  -0.00  -0.03
  10   1    -0.08  -0.17   0.27    -0.03  -0.02   0.05    -0.03  -0.03   0.06
  11   6     0.02  -0.02  -0.00    -0.01  -0.01  -0.00    -0.17  -0.06   0.02
  12   6     0.06  -0.01  -0.03     0.00  -0.00  -0.00    -0.10  -0.10  -0.02
  13  16    -0.01  -0.01  -0.00    -0.00  -0.00  -0.00     0.03  -0.01  -0.02
  14   6     0.00   0.02   0.01     0.00   0.00   0.00    -0.02  -0.07  -0.04
  15   6     0.01   0.05   0.03     0.00   0.02   0.01    -0.07   0.08   0.08
  16   1     0.02   0.03   0.01     0.01   0.01   0.01     0.12   0.14   0.04
  17   6    -0.02  -0.01  -0.00    -0.00  -0.00  -0.00     0.03   0.05   0.02
  18   1    -0.00  -0.01  -0.00    -0.00  -0.00  -0.00     0.01   0.02   0.01
  19   1     0.00   0.00  -0.00     0.00   0.00   0.00     0.01   0.02   0.01
  20   1    -0.01  -0.01  -0.00    -0.00  -0.00  -0.00     0.01   0.02   0.01
  21   1     0.03   0.00  -0.02     0.03   0.00  -0.01     0.47   0.04  -0.15
  22   6    -0.02   0.08   0.00     0.02  -0.02   0.00    -0.01   0.05  -0.00
  23   6    -0.00   0.03  -0.05     0.10  -0.13   0.04     0.01  -0.01  -0.00
  24   6     0.05  -0.02  -0.04    -0.23  -0.03   0.30    -0.01  -0.00   0.01
  25   6     0.04  -0.05   0.01    -0.28   0.33  -0.09     0.00   0.01  -0.01
  26   6    -0.01  -0.04   0.06     0.14   0.12  -0.31     0.01  -0.02   0.01
  27   6    -0.05   0.00   0.04     0.10  -0.11   0.02    -0.03   0.00   0.02
  28   1    -0.01  -0.00   0.02     0.12  -0.22   0.15    -0.01   0.01   0.00
  29   1    -0.00  -0.01   0.02     0.28  -0.12  -0.17     0.03  -0.02  -0.00
  30   1     0.01  -0.02   0.01    -0.08   0.10  -0.04     0.01   0.01  -0.03
  31   1     0.02   0.00  -0.01     0.02  -0.22   0.25    -0.00   0.00   0.00
  32   1    -0.01   0.03  -0.00     0.28  -0.18  -0.05     0.06  -0.03  -0.01
  33   1     0.36   0.04  -0.04     0.02   0.00   0.00     0.18   0.02  -0.04
                     49                     50                     51
                        a                      a                      a 
 Frequencies --  1118.5813              1130.9198              1141.9889
 Red. masses --     4.6903                 7.2720                 6.3112
 Frc consts  --     0.0000                 0.0000                 0.0000
 IR Inten    --     0.0500                 0.4386                 0.2776
 Raman Activ --     0.0000                 0.0000                 0.0000
 Depolar     --     0.0000                 0.0000                 0.0000
 Atom AN      X      Y      Z        X      Y      Z        X      Y      Z
   1   6     0.07  -0.02  -0.08    -0.12   0.06   0.06    -0.13   0.03   0.01
   2   1     0.04   0.03   0.03    -0.11  -0.07   0.00    -0.11  -0.06   0.02
   3   1     0.09   0.05   0.01    -0.04  -0.06  -0.00     0.00  -0.03   0.00
   4   6    -0.10  -0.00   0.10     0.18  -0.03  -0.01     0.21  -0.02   0.05
   5   1    -0.00   0.06   0.05     0.05   0.09   0.03     0.03   0.12   0.05
   6   1    -0.01   0.00  -0.01     0.03  -0.03  -0.06     0.02  -0.06  -0.08
   7   6     0.07   0.01  -0.13    -0.27  -0.09   0.02    -0.13  -0.00  -0.10
   8   7     0.01  -0.02   0.05     0.08  -0.05  -0.03     0.05  -0.06   0.04
   9   1    -0.01  -0.01   0.03    -0.07  -0.05   0.14    -0.05  -0.04   0.11
  10   1    -0.03  -0.02   0.04    -0.04   0.07  -0.08    -0.03   0.03  -0.03
  11   6    -0.05  -0.05  -0.00     0.14   0.08   0.01     0.12  -0.02  -0.04
  12   6    -0.00  -0.01  -0.01     0.01   0.03   0.01     0.26   0.03  -0.08
  13  16     0.00   0.01   0.01    -0.00  -0.03  -0.02    -0.06   0.04   0.04
  14   6    -0.02  -0.10  -0.05     0.06   0.35   0.20    -0.04  -0.26  -0.15
  15   6    -0.07   0.01   0.03     0.23   0.03  -0.07    -0.16  -0.07   0.01
  16   1     0.12   0.12   0.03    -0.30  -0.30  -0.07     0.21   0.20   0.04
  17   6     0.03   0.07   0.03    -0.10  -0.23  -0.11     0.05   0.16   0.09
  18   1     0.01   0.01   0.00    -0.04  -0.05  -0.00     0.03   0.02  -0.01
  19   1     0.03   0.04   0.01    -0.12  -0.13  -0.04     0.10   0.12   0.03
  20   1     0.01   0.01   0.01    -0.04  -0.03  -0.02     0.03   0.01   0.01
  21   1     0.03   0.00  -0.01    -0.14  -0.01   0.04    -0.52  -0.07   0.14
  22   6     0.05   0.05  -0.13    -0.11   0.19  -0.04    -0.17   0.21  -0.03
  23   6     0.06  -0.17   0.14     0.03  -0.01  -0.04    -0.00   0.07  -0.09
  24   6    -0.12   0.05   0.08     0.04  -0.02  -0.02     0.09  -0.04  -0.06
  25   6     0.11   0.02  -0.15     0.04  -0.00  -0.04    -0.00  -0.01   0.02
  26   6    -0.01  -0.12   0.17     0.00  -0.08   0.09     0.01  -0.05   0.05
  27   6    -0.21   0.13   0.08    -0.11   0.04   0.07    -0.04  -0.01   0.05
  28   1    -0.16   0.28  -0.17    -0.03   0.02   0.02     0.04  -0.12   0.12
  29   1     0.16  -0.15  -0.00     0.10  -0.09  -0.00     0.04  -0.04   0.00
  30   1     0.22   0.09  -0.36     0.06   0.02  -0.08    -0.03  -0.02   0.06
  31   1    -0.12   0.20  -0.13     0.01   0.00  -0.01     0.06  -0.08   0.04
  32   1     0.33  -0.23  -0.04     0.22  -0.11  -0.06     0.09  -0.03  -0.05
  33   1    -0.07  -0.02   0.03     0.09   0.00  -0.01     0.03  -0.01   0.01
                     52                     53                     54
                        a                      a                      a 
 Frequencies --  1161.4458              1181.3835              1185.7723
 Red. masses --     7.5426                 2.2070                 6.6215
 Frc consts  --     0.0000                 0.0000                 0.0000
 IR Inten    --     0.4230                 0.1369                 0.2986
 Raman Activ --     0.0000                 0.0000                 0.0000
 Depolar     --     0.0000                 0.0000                 0.0000
 Atom AN      X      Y      Z        X      Y      Z        X      Y      Z
   1   6    -0.04  -0.01   0.20    -0.04   0.01  -0.02     0.07   0.00   0.04
   2   1     0.05   0.00  -0.09    -0.03  -0.01   0.02     0.05   0.01  -0.03
   3   1    -0.24  -0.09  -0.01     0.02   0.01   0.00    -0.05  -0.02  -0.01
   4   6     0.06   0.08  -0.30     0.05   0.02   0.06    -0.08  -0.06  -0.12
   5   1     0.08  -0.13  -0.11     0.01   0.05   0.03    -0.02  -0.10  -0.05
   6   1     0.01   0.06   0.14     0.04   0.03  -0.01    -0.08  -0.06   0.01
   7   6    -0.24  -0.13   0.39    -0.05  -0.03  -0.18     0.03   0.05   0.39
   8   7     0.02   0.15  -0.13     0.01   0.02   0.08    -0.00  -0.05  -0.16
   9   1     0.03   0.02  -0.21    -0.01  -0.01  -0.04    -0.00   0.02   0.10
  10   1    -0.03  -0.05   0.07    -0.03  -0.05   0.09     0.06   0.11  -0.21
  11   6     0.09  -0.01  -0.06    -0.02  -0.06  -0.02     0.08   0.19   0.07
  12   6     0.18   0.02  -0.05     0.02   0.01  -0.00    -0.03  -0.03  -0.01
  13  16    -0.04  -0.00   0.02    -0.00  -0.01  -0.01    -0.01   0.03   0.02
  14   6    -0.02  -0.00   0.01    -0.02   0.10   0.07     0.09  -0.30  -0.22
  15   6    -0.01   0.00   0.01     0.04   0.01  -0.01    -0.10  -0.01   0.03
  16   1     0.07   0.06   0.01     0.07   0.06   0.01    -0.26  -0.21  -0.03
  17   6    -0.00   0.01   0.00    -0.00  -0.05  -0.03    -0.01   0.15   0.10
  18   1    -0.00   0.00   0.00    -0.01   0.00   0.01     0.03  -0.01  -0.04
  19   1     0.01   0.01   0.00    -0.04  -0.04  -0.01     0.13   0.14   0.04
  20   1     0.00   0.00   0.00    -0.01   0.01   0.00     0.04  -0.03  -0.01
  21   1    -0.31  -0.04   0.08    -0.08  -0.01   0.02     0.15   0.02  -0.05
  22   6     0.19  -0.21   0.05     0.03  -0.05   0.06    -0.14   0.09   0.00
  23   6     0.02  -0.10   0.09     0.04  -0.06   0.04     0.04  -0.00  -0.04
  24   6    -0.10   0.03   0.08    -0.02  -0.03   0.06     0.06  -0.01  -0.04
  25   6     0.00   0.03  -0.04     0.03   0.02  -0.06     0.03   0.00  -0.04
  26   6    -0.01   0.05  -0.06    -0.01   0.03  -0.02    -0.03  -0.01   0.06
  27   6     0.03   0.02  -0.05    -0.04   0.05  -0.03    -0.05   0.04   0.02
  28   1    -0.07   0.19  -0.17     0.02  -0.05   0.05     0.03  -0.12   0.10
  29   1    -0.00   0.02  -0.02    -0.28   0.19   0.08    -0.20   0.11   0.07
  30   1     0.04   0.03  -0.08     0.32   0.15  -0.54     0.15   0.06  -0.25
  31   1    -0.07   0.10  -0.05     0.14  -0.35   0.29     0.06  -0.10   0.06
  32   1    -0.02  -0.01   0.04    -0.24   0.14   0.09     0.14  -0.09  -0.06
  33   1     0.09   0.06  -0.08    -0.00  -0.01   0.01     0.02   0.02  -0.02
                     55                     56                     57
                        a                      a                      a 
 Frequencies --  1195.6719              1204.2534              1245.4916
 Red. masses --     4.7976                 4.8943                 5.0567
 Frc consts  --     0.0000                 0.0000                 0.0000
 IR Inten    --     0.3290                 0.2721                 0.0562
 Raman Activ --     0.0000                 0.0000                 0.0000
 Depolar     --     0.0000                 0.0000                 0.0000
 Atom AN      X      Y      Z        X      Y      Z        X      Y      Z
   1   6    -0.04   0.03  -0.01     0.05  -0.02   0.01    -0.09   0.20  -0.21
   2   1    -0.04  -0.02   0.02     0.04   0.01  -0.02    -0.25  -0.11   0.10
   3   1     0.03  -0.00   0.00    -0.03  -0.01  -0.00     0.26   0.00  -0.02
   4   6     0.03  -0.00   0.07    -0.04  -0.06  -0.08     0.09  -0.22   0.11
   5   1     0.02   0.08   0.04    -0.03  -0.08  -0.04    -0.42  -0.21  -0.07
   6   1     0.07   0.05  -0.00    -0.10  -0.10  -0.03     0.33   0.20  -0.03
   7   6    -0.18  -0.07  -0.22     0.16   0.16   0.31    -0.13   0.27   0.14
   8   7     0.03   0.02   0.09    -0.01  -0.08  -0.12     0.02  -0.08  -0.05
   9   1    -0.02  -0.02  -0.02    -0.01   0.01   0.14    -0.05  -0.03   0.15
  10   1    -0.04  -0.04   0.09     0.08   0.11  -0.21     0.03   0.10  -0.16
  11   6     0.11   0.15   0.07    -0.06  -0.06  -0.03     0.03   0.02   0.01
  12   6    -0.01  -0.02  -0.01    -0.00   0.01   0.01     0.04  -0.00  -0.02
  13  16    -0.02   0.04   0.03     0.01  -0.02  -0.02    -0.00  -0.00  -0.00
  14   6     0.14  -0.25  -0.21    -0.10   0.11   0.11    -0.03   0.00   0.01
  15   6    -0.04   0.07   0.05    -0.01  -0.07  -0.04    -0.02  -0.04  -0.02
  16   1    -0.32  -0.25  -0.04     0.20   0.15   0.02     0.04   0.03   0.00
  17   6    -0.05   0.11   0.09     0.04  -0.05  -0.04     0.01   0.00  -0.00
  18   1     0.02  -0.03  -0.05    -0.01   0.03   0.03     0.00   0.01   0.01
  19   1     0.12   0.13   0.04    -0.06  -0.07  -0.02    -0.00  -0.00  -0.00
  20   1     0.03  -0.06  -0.02    -0.01   0.04   0.02    -0.00   0.01   0.01
  21   1     0.04  -0.00  -0.01     0.02   0.01  -0.01    -0.04  -0.01   0.02
  22   6     0.09  -0.04   0.01    -0.17   0.14  -0.06     0.12  -0.19   0.08
  23   6    -0.05   0.01   0.04    -0.08   0.08  -0.00     0.06  -0.05   0.00
  24   6    -0.03  -0.04   0.08     0.08  -0.08   0.02    -0.06   0.04   0.03
  25   6     0.00  -0.01   0.01     0.04  -0.04   0.00    -0.02   0.02   0.01
  26   6     0.07  -0.02  -0.05     0.07  -0.08   0.03     0.02   0.04  -0.07
  27   6    -0.01   0.05  -0.06    -0.07   0.10  -0.04     0.04  -0.02  -0.01
  28   1    -0.11   0.27  -0.21    -0.11   0.22  -0.17    -0.03   0.09  -0.08
  29   1     0.29  -0.18  -0.10     0.33  -0.23  -0.09    -0.07   0.06   0.00
  30   1    -0.02  -0.01   0.05     0.02  -0.01  -0.02    -0.00   0.01  -0.01
  31   1     0.05  -0.15   0.13     0.13  -0.29   0.21    -0.05   0.07  -0.04
  32   1    -0.29   0.17   0.10    -0.19   0.11   0.04    -0.02  -0.00   0.01
  33   1     0.03  -0.00   0.00    -0.01   0.01  -0.01     0.07  -0.06   0.08
                     58                     59                     60
                        a                      a                      a 
 Frequencies --  1282.0718              1296.3347              1323.1927
 Red. masses --     3.6319                 6.6600                11.8017
 Frc consts  --     0.0000                 0.0000                 0.0000
 IR Inten    --     0.1177                 0.2078                 0.0838
 Raman Activ --     0.0000                 0.0000                 0.0000
 Depolar     --     0.0000                 0.0000                 0.0000
 Atom AN      X      Y      Z        X      Y      Z        X      Y      Z
   1   6     0.02  -0.01   0.02    -0.06   0.04  -0.11     0.00   0.02   0.02
   2   1     0.02   0.01  -0.01    -0.08  -0.02   0.06    -0.00  -0.00  -0.01
   3   1    -0.02  -0.01   0.00     0.11   0.03  -0.00    -0.00  -0.01  -0.00
   4   6    -0.03  -0.03  -0.01     0.05   0.13   0.06    -0.04  -0.06  -0.03
   5   1     0.07   0.09   0.04    -0.27  -0.29  -0.11     0.05   0.06   0.02
   6   1    -0.04  -0.04  -0.01     0.22   0.23   0.11     0.03   0.02   0.01
   7   6    -0.01   0.08  -0.11     0.21  -0.48   0.11    -0.04   0.08   0.02
   8   7    -0.01  -0.01   0.02    -0.04   0.15  -0.03     0.02  -0.04   0.00
   9   1    -0.00   0.00   0.03     0.08   0.06  -0.24    -0.02  -0.01   0.05
  10   1    -0.01  -0.01   0.02    -0.02  -0.12   0.18     0.00   0.03  -0.04
  11   6     0.01   0.01   0.02    -0.03  -0.05  -0.05     0.01   0.01  -0.00
  12   6    -0.00  -0.00  -0.00    -0.03   0.02   0.02    -0.01   0.00   0.00
  13  16     0.00  -0.00  -0.00    -0.00   0.00   0.01     0.00  -0.00  -0.00
  14   6    -0.01   0.00   0.01     0.04  -0.00  -0.01    -0.01  -0.00   0.00
  15   6    -0.00  -0.02  -0.01     0.02   0.06   0.03    -0.00  -0.01  -0.00
  16   1     0.01   0.01  -0.00    -0.03  -0.02   0.00     0.00   0.00  -0.00
  17   6     0.00  -0.00  -0.00    -0.01  -0.00   0.00     0.00   0.00  -0.00
  18   1     0.00   0.00   0.00    -0.00  -0.01  -0.01     0.00   0.00   0.00
  19   1    -0.00  -0.00  -0.00     0.00   0.00   0.00     0.00   0.00   0.00
  20   1    -0.00   0.00   0.00     0.00  -0.01  -0.00     0.00   0.00   0.00
  21   1     0.01   0.00  -0.00    -0.02   0.00   0.01     0.00   0.00   0.00
  22   6    -0.09  -0.12   0.25    -0.15   0.20  -0.07     0.24   0.06  -0.35
  23   6    -0.14   0.11   0.02    -0.16   0.12   0.03    -0.30   0.20   0.10
  24   6    -0.01   0.08  -0.09     0.09  -0.04  -0.05     0.11  -0.30   0.25
  25   6     0.09   0.04  -0.14     0.08  -0.02  -0.07     0.19   0.10  -0.33
  26   6     0.09  -0.02  -0.09    -0.05  -0.03   0.09    -0.32   0.22   0.09
  27   6     0.10  -0.15   0.08    -0.02   0.01   0.01     0.14  -0.31   0.23
  28   1    -0.15   0.37  -0.30    -0.00   0.01   0.01     0.01  -0.01   0.01
  29   1    -0.29   0.20   0.07     0.04  -0.04   0.01    -0.02   0.02   0.00
  30   1    -0.12  -0.05   0.20    -0.01  -0.02   0.04    -0.00   0.00  -0.00
  31   1     0.12  -0.27   0.20     0.09  -0.15   0.09    -0.01   0.02  -0.00
  32   1     0.35  -0.21  -0.11     0.13  -0.07  -0.04    -0.04   0.03   0.01
  33   1     0.00   0.00  -0.00    -0.02  -0.03   0.04     0.03   0.00  -0.01
                     61                     62                     63
                        a                      a                      a 
 Frequencies --  1331.8270              1356.3815              1402.1692
 Red. masses --     4.7471                10.8002                 3.2825
 Frc consts  --     0.0000                 0.0000                 0.0000
 IR Inten    --     0.0906                 0.0820                 0.2150
 Raman Activ --     0.0000                 0.0000                 0.0000
 Depolar     --     0.0000                 0.0000                 0.0000
 Atom AN      X      Y      Z        X      Y      Z        X      Y      Z
   1   6     0.05  -0.12  -0.10     0.00  -0.01  -0.01     0.00   0.00  -0.00
   2   1     0.01   0.01   0.07     0.01   0.01   0.01    -0.01  -0.00   0.00
   3   1    -0.04   0.07  -0.01     0.01   0.02   0.00    -0.01  -0.00  -0.00
   4   6     0.32   0.35   0.16    -0.01   0.05   0.03    -0.00  -0.00  -0.00
   5   1    -0.33  -0.32  -0.13    -0.03  -0.03  -0.01     0.00   0.00   0.00
   6   1    -0.42  -0.40  -0.16    -0.01   0.00   0.00     0.00   0.00   0.00
   7   6    -0.17   0.01  -0.03    -0.13  -0.18  -0.05     0.01   0.01   0.00
   8   7     0.03  -0.00   0.02     0.01   0.03   0.03    -0.00  -0.00  -0.00
   9   1    -0.03  -0.03  -0.01    -0.00  -0.01  -0.07     0.00   0.00   0.00
  10   1    -0.04   0.02  -0.01    -0.03  -0.01   0.04     0.00  -0.00   0.00
  11   6    -0.03  -0.03  -0.00     0.30   0.58   0.25    -0.03  -0.04  -0.01
  12   6     0.04  -0.01  -0.02    -0.06  -0.11  -0.05    -0.00   0.00   0.00
  13  16    -0.00  -0.00  -0.00     0.02  -0.01  -0.02    -0.00  -0.00  -0.00
  14   6     0.03   0.00  -0.01    -0.21   0.04   0.10     0.01   0.04   0.02
  15   6     0.01   0.04   0.02    -0.11  -0.44  -0.23     0.03   0.03   0.01
  16   1    -0.03  -0.02   0.00     0.22   0.08  -0.03    -0.02  -0.01  -0.00
  17   6    -0.01  -0.00   0.00     0.07  -0.01  -0.03    -0.25  -0.35  -0.13
  18   1     0.00  -0.00  -0.01    -0.00   0.06   0.06     0.14   0.50   0.03
  19   1     0.00   0.00   0.00     0.01  -0.01  -0.00     0.40   0.30   0.05
  20   1     0.00  -0.01  -0.00    -0.01   0.08   0.03     0.25   0.31   0.33
  21   1     0.01  -0.00  -0.01     0.17  -0.00  -0.06    -0.01  -0.00   0.00
  22   6     0.07  -0.03  -0.00     0.00   0.02   0.01    -0.00  -0.00  -0.00
  23   6    -0.01  -0.00   0.00    -0.01   0.01  -0.00     0.00  -0.00   0.00
  24   6    -0.01  -0.03   0.04     0.01  -0.01  -0.00    -0.00   0.00   0.00
  25   6     0.02   0.02  -0.04    -0.00  -0.00   0.00    -0.00   0.00  -0.00
  26   6    -0.02   0.03  -0.02    -0.01   0.00   0.00     0.00  -0.00  -0.00
  27   6     0.03  -0.06   0.04     0.00   0.00  -0.01    -0.00  -0.00   0.00
  28   1    -0.01   0.05  -0.03     0.01  -0.00   0.01     0.00  -0.00   0.00
  29   1    -0.03   0.03   0.00     0.01  -0.01  -0.00    -0.00   0.00   0.00
  30   1    -0.00   0.00   0.00     0.01   0.00  -0.01    -0.00  -0.00   0.00
  31   1    -0.01   0.02  -0.01     0.00   0.00  -0.00    -0.00  -0.00   0.00
  32   1    -0.01   0.01   0.01     0.01   0.00   0.00    -0.00   0.00   0.00
  33   1    -0.20  -0.04   0.06    -0.00  -0.00  -0.00    -0.01  -0.00   0.00
                     64                     65                     66
                        a                      a                      a 
 Frequencies --  1408.0207              1435.9713              1467.9930
 Red. masses --     3.1393                 8.8299                 1.5523
 Frc consts  --     0.0000                 0.0000                 0.0000
 IR Inten    --     0.0428                 0.1657                 0.0752
 Raman Activ --     0.0000                 0.0000                 0.0000
 Depolar     --     0.0000                 0.0000                 0.0000
 Atom AN      X      Y      Z        X      Y      Z        X      Y      Z
   1   6    -0.39  -0.18   0.06     0.00   0.00  -0.00     0.00  -0.00   0.00
   2   1     0.35   0.31  -0.12    -0.01  -0.00   0.01    -0.00  -0.00  -0.00
   3   1     0.47   0.21   0.13    -0.01   0.01  -0.00     0.00   0.00   0.00
   4   6     0.04   0.05   0.03    -0.01  -0.00  -0.00    -0.00  -0.00   0.00
   5   1    -0.01  -0.08  -0.03     0.01  -0.02  -0.01    -0.00   0.00   0.00
   6   1    -0.03  -0.05  -0.08     0.01   0.01  -0.01    -0.00  -0.00   0.00
   7   6    -0.03   0.02   0.02    -0.04  -0.01   0.06     0.00   0.00  -0.00
   8   7     0.01   0.00  -0.01     0.02  -0.02   0.01     0.00  -0.00  -0.00
   9   1    -0.01  -0.01   0.01    -0.02  -0.02  -0.01     0.00   0.00   0.00
  10   1    -0.00   0.01  -0.01    -0.01   0.03  -0.03     0.00  -0.00   0.00
  11   6    -0.01  -0.01  -0.00     0.01   0.02  -0.01    -0.00   0.00   0.00
  12   6     0.01  -0.00  -0.00    -0.01   0.00   0.00     0.00  -0.00  -0.00
  13  16    -0.00   0.00   0.00    -0.00  -0.00   0.00    -0.00   0.00  -0.00
  14   6     0.01   0.00  -0.00    -0.01  -0.00   0.00     0.02  -0.01   0.03
  15   6     0.00   0.01   0.01    -0.00  -0.01  -0.00    -0.01  -0.01   0.00
  16   1    -0.01  -0.00   0.00     0.00   0.00  -0.00     0.00   0.00  -0.00
  17   6    -0.01  -0.01  -0.00     0.00   0.00  -0.00     0.05  -0.11   0.18
  18   1     0.00   0.01  -0.00    -0.00   0.00   0.00     0.14  -0.30  -0.35
  19   1     0.01   0.00   0.00     0.00  -0.00   0.00    -0.22   0.35  -0.59
  20   1     0.00   0.00   0.00    -0.00   0.00  -0.00    -0.13   0.37   0.21
  21   1    -0.00  -0.00  -0.00     0.00   0.00  -0.00    -0.00  -0.00  -0.00
  22   6     0.00  -0.01   0.00     0.18   0.10  -0.34     0.00  -0.00  -0.00
  23   6     0.00  -0.00  -0.00     0.11  -0.23   0.16    -0.00  -0.00   0.00
  24   6    -0.00   0.00   0.00    -0.26   0.23   0.00    -0.00   0.00  -0.00
  25   6     0.00   0.00  -0.01     0.17   0.09  -0.30     0.00  -0.00  -0.00
  26   6     0.00  -0.00  -0.00     0.20  -0.27   0.11    -0.00  -0.00   0.00
  27   6    -0.00  -0.00   0.01    -0.23   0.14   0.09    -0.00   0.00  -0.00
  28   1    -0.00   0.01  -0.00    -0.02  -0.08   0.12     0.00  -0.00   0.00
  29   1    -0.01   0.00   0.00    -0.19   0.08   0.11     0.00  -0.00   0.00
  30   1    -0.00  -0.00   0.00    -0.19  -0.08   0.31    -0.00  -0.00   0.00
  31   1    -0.00   0.00  -0.00     0.01  -0.13   0.16     0.00  -0.00   0.00
  32   1     0.01  -0.00  -0.00    -0.13   0.04   0.10    -0.00  -0.00   0.00
  33   1     0.46   0.05  -0.24     0.00  -0.00   0.00    -0.00   0.00  -0.00
                     67                     68                     69
                        a                      a                      a 
 Frequencies --  1474.6210              1475.6121              1486.7680
 Red. masses --     2.5378                 8.4597                 2.0625
 Frc consts  --     0.0000                 0.0000                 0.0000
 IR Inten    --     0.1990                 0.2193                 0.0313
 Raman Activ --     0.0000                 0.0000                 0.0000
 Depolar     --     0.0000                 0.0000                 0.0000
 Atom AN      X      Y      Z        X      Y      Z        X      Y      Z
   1   6    -0.00   0.00  -0.00     0.01  -0.00   0.01     0.02   0.03  -0.03
   2   1     0.00   0.01   0.00    -0.03  -0.03  -0.02    -0.01   0.04   0.11
   3   1    -0.00  -0.00  -0.00     0.01   0.03   0.01    -0.10  -0.03  -0.02
   4   6     0.01   0.00  -0.00    -0.04   0.01   0.03    -0.18   0.10   0.17
   5   1    -0.01   0.01   0.00     0.07  -0.08  -0.01     0.48  -0.44  -0.07
   6   1    -0.01  -0.01   0.00     0.06   0.03  -0.09     0.22   0.04  -0.61
   7   6    -0.03   0.02  -0.00     0.07  -0.09   0.02    -0.03   0.03   0.01
   8   7     0.00  -0.00   0.00    -0.00   0.01  -0.00     0.02  -0.01   0.03
   9   1    -0.00  -0.00  -0.00     0.01   0.01  -0.02    -0.03  -0.03  -0.06
  10   1    -0.00   0.01  -0.01     0.01  -0.01   0.01    -0.05   0.06  -0.05
  11   6     0.08  -0.06  -0.07     0.01  -0.01  -0.01     0.03  -0.01  -0.02
  12   6    -0.06   0.04   0.05    -0.01   0.00   0.00    -0.02   0.01   0.01
  13  16    -0.01   0.00   0.00    -0.00   0.00   0.00    -0.00   0.00   0.00
  14   6    -0.11  -0.09  -0.02    -0.01  -0.01  -0.00    -0.01  -0.01  -0.00
  15   6     0.13   0.07  -0.00     0.02   0.01   0.00     0.01   0.01   0.00
  16   1    -0.02  -0.03  -0.01    -0.01  -0.01  -0.00     0.00   0.00   0.00
  17   6     0.18  -0.07  -0.09     0.03  -0.02  -0.02    -0.00   0.01   0.00
  18   1    -0.34  -0.12   0.46    -0.07  -0.03   0.09     0.01   0.01  -0.01
  19   1     0.26   0.23  -0.01     0.05   0.05  -0.00    -0.01  -0.01  -0.00
  20   1    -0.55   0.27  -0.06    -0.11   0.05  -0.01     0.02  -0.01   0.00
  21   1     0.01   0.02   0.01    -0.01   0.00   0.00    -0.03   0.00   0.01
  22   6     0.05  -0.06   0.01    -0.27   0.28  -0.05     0.04  -0.05   0.02
  23   6    -0.05   0.01   0.04     0.23  -0.06  -0.19    -0.04   0.01   0.02
  24   6    -0.01   0.05  -0.05     0.04  -0.24   0.25    -0.00   0.03  -0.04
  25   6     0.03  -0.04   0.01    -0.18   0.19  -0.03     0.02  -0.03   0.02
  26   6    -0.05   0.02   0.03     0.28  -0.11  -0.18    -0.05   0.03   0.02
  27   6     0.00   0.04  -0.05    -0.00  -0.19   0.24     0.01   0.02  -0.03
  28   1     0.02  -0.04   0.02    -0.11   0.21  -0.13     0.02  -0.01   0.01
  29   1     0.04  -0.03  -0.01    -0.19   0.15   0.03     0.03  -0.02  -0.01
  30   1     0.01  -0.01   0.00    -0.04   0.06  -0.03     0.01  -0.01  -0.01
  31   1     0.02  -0.04   0.02    -0.10   0.20  -0.13     0.01  -0.03   0.02
  32   1     0.04  -0.03  -0.00    -0.18   0.14   0.02     0.03  -0.02  -0.00
  33   1     0.01  -0.01   0.01    -0.03   0.03  -0.04     0.04  -0.06   0.09
                     70                     71                     72
                        a                      a                      a 
 Frequencies --  1493.4780              1504.7634              1509.9237
 Red. masses --     1.6227                 1.6406                11.0385
 Frc consts  --     0.0000                 0.0000                 0.0000
 IR Inten    --     0.0187                 0.0717                 0.6148
 Raman Activ --     0.0000                 0.0000                 0.0000
 Depolar     --     0.0000                 0.0000                 0.0000
 Atom AN      X      Y      Z        X      Y      Z        X      Y      Z
   1   6     0.11  -0.13   0.13    -0.04   0.13   0.16    -0.00  -0.01  -0.01
   2   1    -0.27  -0.33  -0.13     0.09  -0.16  -0.65    -0.00   0.01   0.04
   3   1     0.05   0.48   0.13     0.39  -0.45  -0.03    -0.02   0.03   0.00
   4   6    -0.01  -0.02   0.05    -0.01   0.06   0.06     0.03  -0.00  -0.01
   5   1     0.04  -0.05  -0.00     0.02  -0.07  -0.01    -0.03   0.03   0.00
   6   1     0.06   0.02  -0.08     0.00  -0.01  -0.08    -0.02  -0.01   0.04
   7   6    -0.01   0.01   0.00    -0.01  -0.01  -0.01    -0.11  -0.01   0.01
   8   7     0.00  -0.00   0.00     0.00  -0.00   0.01    -0.00  -0.01   0.03
   9   1    -0.01  -0.01  -0.01    -0.01  -0.01  -0.01    -0.01  -0.01  -0.03
  10   1    -0.01   0.01  -0.01    -0.00   0.00  -0.00    -0.02   0.02  -0.02
  11   6     0.01  -0.00  -0.00     0.04  -0.01  -0.02     0.52  -0.20  -0.32
  12   6    -0.00   0.00   0.00    -0.03   0.01   0.02    -0.39   0.21   0.27
  13  16    -0.00   0.00   0.00    -0.00   0.00   0.00    -0.01   0.00   0.00
  14   6    -0.00  -0.00  -0.00    -0.02  -0.01   0.00    -0.34  -0.19   0.00
  15   6     0.00   0.00  -0.00     0.01   0.00  -0.00     0.20   0.08  -0.03
  16   1     0.00   0.00   0.00     0.01   0.00  -0.00     0.06   0.01  -0.01
  17   6    -0.00   0.00   0.00     0.00   0.01   0.00     0.04   0.09   0.04
  18   1     0.00   0.00  -0.00     0.01   0.01  -0.01     0.10   0.07  -0.10
  19   1    -0.00  -0.00   0.00    -0.01  -0.00  -0.00    -0.07  -0.05  -0.00
  20   1     0.00  -0.00   0.00     0.01  -0.00   0.00     0.15  -0.01   0.05
  21   1    -0.00   0.00   0.00     0.00   0.01   0.00     0.08   0.10   0.03
  22   6     0.02  -0.03   0.01     0.01  -0.01  -0.00    -0.02   0.01  -0.00
  23   6    -0.02   0.01   0.02    -0.00  -0.00   0.01    -0.00   0.00  -0.01
[...]
  27   6     0.00   0.01  -0.02    -0.05  -0.14   0.23    -0.00   0.10  -0.12
  28   1     0.01  -0.01   0.01    -0.05   0.05  -0.01     0.02  -0.03   0.01
  29   1     0.00  -0.01   0.00    -0.04   0.05  -0.02     0.01  -0.02   0.02
  30   1    -0.01  -0.01   0.02     0.06   0.03  -0.10    -0.03  -0.01   0.04
  31   1    -0.00  -0.00   0.01     0.05  -0.04  -0.01    -0.02   0.03  -0.01
  32   1    -0.02   0.01   0.00     0.05  -0.05   0.01    -0.01   0.02  -0.01
  33   1    -0.00  -0.00   0.00    -0.00   0.00  -0.00     0.00  -0.00   0.00
                     76                     77                     78
                        a                      a                      a 
 Frequencies --  1603.6803              2962.7266              2986.1220
 Red. masses --    11.4870                 1.8417                 1.6156
 Frc consts  --     0.0000                 0.0000                 0.0000
 IR Inten    --     0.2200                 0.2542                 0.1649
 Raman Activ --     0.0000                 0.0000                 0.0000
 Depolar     --     0.0000                 0.0000                 0.0000
 Atom AN      X      Y      Z        X      Y      Z        X      Y      Z
   1   6     0.00  -0.00   0.00     0.01  -0.02   0.00     0.00   0.01   0.02
   2   1    -0.00  -0.00  -0.00    -0.05   0.05  -0.02    -0.01   0.01   0.00
   3   1     0.00  -0.00   0.00     0.01   0.00  -0.03     0.01   0.02  -0.07
   4   6     0.00   0.01   0.01    -0.15   0.20  -0.11     0.06   0.03  -0.22
   5   1     0.01  -0.01  -0.00    -0.05  -0.04   0.21    -0.09  -0.28   0.89
   6   1    -0.00  -0.00  -0.01     0.60  -0.69   0.18    -0.14   0.18  -0.08
   7   6    -0.02   0.03  -0.01    -0.00   0.01  -0.00     0.00   0.00  -0.01
   8   7    -0.00   0.00  -0.01     0.00  -0.00  -0.00    -0.00  -0.00   0.00
   9   1     0.00   0.01   0.02    -0.00   0.00   0.00    -0.00   0.00  -0.00
  10   1     0.01  -0.01   0.01     0.00   0.00   0.00     0.00   0.00  -0.00
  11   6    -0.04   0.01   0.02    -0.00   0.00   0.00     0.00  -0.00  -0.00
  12   6     0.03  -0.01  -0.02    -0.00  -0.00  -0.00     0.00   0.00   0.00
  13  16     0.00   0.00   0.00     0.00  -0.00  -0.00    -0.00   0.00   0.00
  14   6    -0.05  -0.02   0.00    -0.00  -0.00  -0.00     0.00   0.00   0.00
  15   6     0.05   0.02  -0.01     0.00  -0.00  -0.00    -0.00   0.00   0.00
  16   1    -0.00  -0.01  -0.00    -0.00   0.00   0.00     0.00  -0.00  -0.00
  17   6     0.01   0.01   0.00     0.00  -0.00   0.00    -0.00  -0.00   0.00
  18   1     0.00   0.01  -0.00    -0.00   0.00  -0.00    -0.00   0.00  -0.00
  19   1    -0.00  -0.00   0.00    -0.00   0.00   0.00     0.00  -0.00  -0.00
  20   1     0.01   0.00   0.00     0.00   0.00  -0.00     0.00   0.00  -0.00
  21   1    -0.00  -0.01  -0.00     0.00   0.01   0.01    -0.00  -0.01  -0.01
  22   6     0.18  -0.21   0.05     0.00   0.00   0.00    -0.00   0.00  -0.00
  23   6    -0.34   0.29   0.03     0.00  -0.00  -0.00     0.00  -0.00   0.00
  24   6     0.21  -0.34   0.19    -0.00   0.00   0.00    -0.00   0.00   0.00
  25   6    -0.13   0.15  -0.05    -0.00   0.00   0.00    -0.00   0.00  -0.00
  26   6     0.34  -0.29  -0.02     0.00  -0.00  -0.00     0.00   0.00  -0.00
  27   6    -0.22   0.36  -0.20    -0.00   0.00   0.00    -0.00   0.00   0.00
  28   1     0.02  -0.08   0.08     0.00  -0.00  -0.00     0.01  -0.00  -0.01
  29   1    -0.08   0.04   0.05    -0.00  -0.00   0.00    -0.00  -0.00   0.00
  30   1    -0.04   0.04  -0.01     0.00  -0.00   0.00     0.00  -0.00   0.00
  31   1    -0.01   0.07  -0.07     0.00  -0.00  -0.00     0.00  -0.00  -0.00
  32   1     0.08  -0.04  -0.05    -0.00   0.00  -0.00    -0.00   0.00  -0.00
  33   1    -0.01   0.00  -0.00     0.01   0.03   0.02    -0.01  -0.05  -0.03
                     79                     80                     81
                        a                      a                      a 
 Frequencies --  2998.2950              3014.0611              3033.0420
 Red. masses --     1.9331                 1.5369                 1.7972
 Frc consts  --     0.0000                 0.0000                 0.0000
 IR Inten    --     0.1319                 0.1275                 0.2432
 Raman Activ --     0.0000                 0.0000                 0.0000
 Depolar     --     0.0000                 0.0000                 0.0000
 Atom AN      X      Y      Z        X      Y      Z        X      Y      Z
   1   6    -0.00   0.00  -0.00    -0.00  -0.00  -0.00     0.01   0.23   0.13
   2   1     0.00  -0.00   0.00     0.00  -0.00  -0.00     0.10  -0.08   0.06
   3   1    -0.00  -0.00   0.00    -0.00  -0.00   0.00     0.00   0.04   0.00
   4   6     0.00  -0.00   0.00    -0.00   0.00   0.00    -0.01   0.01   0.01
   5   1     0.00   0.00  -0.00     0.00   0.00  -0.00     0.00   0.01  -0.04
   6   1    -0.00   0.00  -0.00     0.00  -0.00   0.00     0.04  -0.04   0.01
   7   6     0.00  -0.00   0.00     0.00   0.00  -0.00    -0.00  -0.00  -0.00
   8   7    -0.00   0.00  -0.00    -0.00  -0.00   0.00     0.00  -0.00  -0.00
   9   1     0.00  -0.00   0.00     0.00   0.00   0.00     0.00   0.00   0.00
  10   1     0.00  -0.00   0.00     0.00  -0.00  -0.00     0.00   0.00   0.00
  11   6    -0.00   0.00  -0.00     0.00  -0.00  -0.00    -0.00   0.00   0.00
  12   6     0.00  -0.00  -0.00    -0.00   0.00   0.00    -0.00  -0.00  -0.00
  13  16    -0.00   0.00  -0.00    -0.00  -0.00  -0.00     0.00   0.00  -0.00
  14   6     0.00  -0.00   0.00    -0.01  -0.01   0.00    -0.00  -0.00   0.00
  15   6    -0.00  -0.00   0.00     0.00   0.00  -0.00     0.00  -0.00  -0.00
  16   1     0.00  -0.00   0.00    -0.00   0.00   0.00    -0.00   0.00   0.00
  17   6     0.10  -0.14   0.23    -0.20  -0.04   0.08    -0.00  -0.00   0.00
  18   1    -0.60   0.22  -0.37     0.48  -0.20   0.35     0.00  -0.00   0.00
  19   1     0.01  -0.02   0.03     0.02  -0.05  -0.03     0.00  -0.00  -0.00
  20   1     0.22   0.31  -0.48     0.22   0.39  -0.60     0.00   0.00  -0.00
  21   1    -0.00  -0.00   0.00     0.00  -0.00  -0.00     0.00   0.00   0.00
  22   6     0.00  -0.00   0.00     0.00  -0.00  -0.00     0.00  -0.00   0.00
  23   6    -0.00   0.00  -0.00    -0.00  -0.00   0.00     0.00   0.00  -0.00
  24   6     0.00  -0.00  -0.00    -0.00   0.00   0.00    -0.00   0.00   0.00
  25   6     0.00  -0.00   0.00    -0.00   0.00  -0.00    -0.00   0.00  -0.00
  26   6     0.00   0.00  -0.00     0.00   0.00  -0.00     0.00   0.00  -0.00
  27   6     0.00  -0.00  -0.00    -0.00  -0.00   0.00     0.00  -0.00  -0.00
  28   1    -0.00   0.00   0.00     0.00   0.00  -0.00    -0.00   0.00   0.00
  29   1    -0.00  -0.00   0.00    -0.00  -0.00   0.00    -0.00  -0.00   0.00
  30   1    -0.00   0.00  -0.00     0.00  -0.00   0.00     0.00  -0.00   0.00
  31   1    -0.00   0.00   0.00     0.00  -0.00  -0.00     0.00  -0.00  -0.00
  32   1    -0.00  -0.00   0.00     0.00   0.00  -0.00    -0.00  -0.01   0.01
  33   1    -0.00  -0.00  -0.00     0.00   0.01   0.00    -0.14  -0.78  -0.53
                     82                     83                     84
                        a                      a                      a 
 Frequencies --  3039.3907              3044.9933              3057.2207
 Red. masses --     1.6629                 1.7101                 1.6508
 Frc consts  --     0.0000                 0.0000                 0.0000
 IR Inten    --     0.1279                 0.1832                 0.1312
 Raman Activ --     0.0000                 0.0000                 0.0000
 Depolar     --     0.0000                 0.0000                 0.0000
 Atom AN      X      Y      Z        X      Y      Z        X      Y      Z
   1   6     0.00  -0.00   0.00     0.16  -0.15   0.12     0.05   0.04  -0.23
   2   1    -0.01   0.01  -0.00    -0.62   0.67  -0.25    -0.07   0.08  -0.06
   3   1     0.00  -0.00   0.00     0.03   0.00  -0.10    -0.12  -0.21   0.93
   4   6     0.00  -0.00   0.00     0.01  -0.02   0.02     0.00   0.01  -0.02
   5   1    -0.00   0.00  -0.00     0.00   0.01  -0.04    -0.01  -0.02   0.07
   6   1    -0.00   0.00  -0.00    -0.03   0.04  -0.01     0.00  -0.00  -0.00
   7   6    -0.00  -0.00   0.00     0.00  -0.00   0.00     0.00   0.00  -0.00
   8   7     0.00   0.00  -0.00    -0.00   0.00  -0.00    -0.00  -0.00  -0.00
   9   1    -0.00   0.00   0.00     0.00  -0.00  -0.00    -0.00   0.00   0.00
  10   1    -0.00   0.00   0.00    -0.00  -0.00  -0.00     0.00   0.00   0.00
  11   6     0.00   0.00  -0.00     0.00   0.00  -0.00     0.00   0.00  -0.00
  12   6    -0.00  -0.00  -0.00    -0.00   0.00   0.00    -0.00   0.00   0.00
  13  16     0.00  -0.00  -0.00     0.00  -0.00   0.00    -0.00  -0.00   0.00
  14   6    -0.00   0.01   0.01    -0.00  -0.00  -0.00     0.00  -0.00  -0.00
  15   6     0.00  -0.01  -0.01    -0.00   0.00   0.00    -0.00   0.00   0.00
  16   1    -0.01   0.02   0.01     0.00  -0.00  -0.00     0.00  -0.00  -0.00
  17   6    -0.13   0.15   0.14     0.00  -0.00  -0.00     0.00  -0.00  -0.00
  18   1    -0.06   0.03  -0.01     0.00  -0.00   0.00     0.00  -0.00   0.00
  19   1     0.55  -0.57  -0.55    -0.01   0.01   0.01    -0.00   0.00   0.00
  20   1    -0.04  -0.01   0.06     0.00   0.00  -0.00     0.00  -0.00  -0.00
  21   1     0.00   0.00   0.00    -0.00  -0.00  -0.00    -0.00  -0.00  -0.00
  22   6    -0.00   0.00  -0.00    -0.00  -0.00   0.00    -0.00   0.00  -0.00
  23   6     0.00  -0.00  -0.00    -0.00  -0.00   0.00    -0.00  -0.01   0.01
  24   6     0.00  -0.00  -0.00     0.00  -0.00  -0.00     0.00  -0.00  -0.00
  25   6     0.00  -0.00   0.00     0.00  -0.00   0.00     0.00  -0.00   0.00
  26   6    -0.00  -0.00   0.00    -0.00  -0.00   0.00     0.00   0.00  -0.00
  27   6    -0.00   0.00   0.00     0.00  -0.00  -0.00    -0.01   0.00   0.01
  28   1     0.00  -0.00  -0.00    -0.01   0.00   0.01     0.03  -0.01  -0.02
  29   1     0.00   0.00  -0.00     0.00   0.00  -0.00    -0.00  -0.00   0.00
  30   1    -0.00   0.00  -0.00    -0.00   0.00  -0.00    -0.00   0.00  -0.00
  31   1    -0.00   0.00   0.00    -0.00   0.00   0.00    -0.01   0.00   0.00
  32   1    -0.00   0.00  -0.00     0.00   0.00  -0.01     0.00   0.02  -0.03
  33   1     0.00  -0.00  -0.00    -0.00  -0.15  -0.07    -0.00  -0.02  -0.05
                     85                     86                     87
                        a                      a                      a 
 Frequencies --  3068.3447              3071.5988              3079.4282
 Red. masses --     1.7501                 1.7879                 1.8530
 Frc consts  --     0.0000                 0.0000                 0.0000
 IR Inten    --     0.0952                 0.1024                 0.3491
 Raman Activ --     0.0000                 0.0000                 0.0000
 Depolar     --     0.0000                 0.0000                 0.0000
 Atom AN      X      Y      Z        X      Y      Z        X      Y      Z
   1   6     0.00  -0.00   0.01     0.00   0.00  -0.01     0.00  -0.00   0.00
   2   1    -0.00   0.00  -0.00    -0.00   0.00  -0.00    -0.01   0.01  -0.00
   3   1     0.00   0.00  -0.02    -0.00  -0.01   0.02     0.00   0.00  -0.01
   4   6    -0.00  -0.00   0.00     0.00   0.00  -0.00    -0.00  -0.00   0.00
   5   1     0.00   0.00  -0.01    -0.00  -0.00   0.01     0.00   0.00  -0.01
   6   1    -0.00   0.00   0.00    -0.00   0.00  -0.00    -0.00   0.00  -0.00
   7   6    -0.00  -0.00   0.00    -0.00   0.00   0.00    -0.00  -0.00   0.00
   8   7     0.00  -0.00  -0.00    -0.00   0.00   0.00     0.00  -0.00  -0.00
   9   1    -0.00  -0.00  -0.00     0.00  -0.00   0.00    -0.00  -0.00   0.00
  10   1    -0.00   0.00   0.00    -0.00  -0.00  -0.00    -0.00   0.00   0.00
  11   6     0.00   0.00  -0.00    -0.00   0.00  -0.00     0.00  -0.00  -0.00
  12   6    -0.00   0.00  -0.00     0.00  -0.00   0.00    -0.00   0.00  -0.00
  13  16     0.00  -0.00  -0.00    -0.00  -0.00   0.00     0.00  -0.00  -0.00
  14   6     0.00   0.00  -0.00    -0.00  -0.00   0.00     0.00   0.00   0.00
  15   6    -0.00   0.00   0.00     0.00  -0.00  -0.00    -0.00   0.00   0.00
  16   1     0.00  -0.00  -0.00    -0.00   0.00   0.00     0.01  -0.01  -0.01
  17   6     0.00  -0.00   0.00    -0.00   0.00  -0.00     0.00  -0.00   0.00
  18   1    -0.00   0.00  -0.00     0.00  -0.00   0.00    -0.00   0.00  -0.00
  19   1     0.00  -0.00  -0.00     0.00  -0.00  -0.00     0.00  -0.00   0.00
  20   1    -0.00  -0.00   0.00    -0.00  -0.00   0.00     0.00   0.00  -0.00
  21   1    -0.00  -0.00  -0.00     0.00   0.00   0.00    -0.00  -0.00  -0.00
  22   6    -0.01   0.00   0.00     0.00  -0.00  -0.00    -0.00   0.01  -0.00
  23   6     0.00   0.00  -0.00    -0.00   0.02  -0.02     0.00   0.01  -0.02
  24   6    -0.05   0.01   0.04    -0.15   0.03   0.12    -0.11   0.03   0.09
  25   6     0.07  -0.08   0.02     0.08  -0.09   0.02    -0.07   0.08  -0.02
  26   6     0.02   0.09  -0.13    -0.00  -0.02   0.03    -0.01  -0.08   0.11
  27   6    -0.12   0.03   0.10     0.10  -0.02  -0.08    -0.12   0.03   0.10
  28   1     0.45  -0.10  -0.37    -0.35   0.08   0.29     0.41  -0.09  -0.34
  29   1    -0.07  -0.34   0.50     0.01   0.07  -0.10     0.05   0.27  -0.40
  30   1    -0.26   0.29  -0.07    -0.29   0.33  -0.08     0.25  -0.28   0.07
  31   1     0.18  -0.04  -0.15     0.53  -0.12  -0.44     0.37  -0.09  -0.31
  32   1    -0.00  -0.01   0.02    -0.01  -0.06   0.09    -0.01  -0.06   0.08
  33   1    -0.00  -0.00   0.00     0.00   0.00   0.00    -0.00  -0.00  -0.00
                     88                     89                     90
                        a                      a                      a 
 Frequencies --  3089.1191              3108.2277              3113.7899
 Red. masses --     1.9106                 1.8478                 1.8490
 Frc consts  --     0.0000                 0.0000                 0.0000
 IR Inten    --     0.3192                 0.1686                 0.1144
 Raman Activ --     0.0000                 0.0000                 0.0000
 Depolar     --     0.0000                 0.0000                 0.0000
 Atom AN      X      Y      Z        X      Y      Z        X      Y      Z
   1   6     0.00  -0.00  -0.00     0.00  -0.00  -0.01    -0.00   0.00   0.00
   2   1    -0.01   0.00  -0.00    -0.01   0.01  -0.01     0.00  -0.00   0.00
   3   1    -0.00  -0.00   0.01    -0.00  -0.01   0.03     0.00   0.00  -0.00
   4   6     0.00  -0.00  -0.00     0.00   0.00  -0.00    -0.00   0.00   0.00
   5   1    -0.00  -0.00   0.00    -0.00  -0.00   0.00    -0.00   0.00  -0.00
   6   1    -0.00   0.00  -0.00    -0.00   0.00  -0.00     0.00  -0.00   0.00
   7   6     0.00  -0.00  -0.00     0.00   0.00  -0.00    -0.00   0.00   0.00
   8   7    -0.00   0.00   0.00    -0.00   0.00   0.00     0.00  -0.00  -0.00
   9   1     0.00  -0.00   0.00     0.00  -0.00   0.00    -0.00   0.00  -0.00
  10   1     0.00  -0.00  -0.00    -0.00  -0.00  -0.00     0.00   0.00  -0.00
  11   6    -0.00   0.00  -0.00     0.00  -0.00  -0.00    -0.01  -0.00   0.00
  12   6     0.00  -0.00  -0.00    -0.00   0.00   0.00     0.00   0.00   0.00
  13  16    -0.00  -0.00   0.00    -0.00   0.00   0.00     0.00  -0.00  -0.00
  14   6     0.00   0.00   0.00    -0.00  -0.00  -0.00     0.01   0.01   0.00
  15   6    -0.00   0.00   0.00     0.00  -0.00  -0.00    -0.17   0.16   0.15
  16   1     0.00  -0.00  -0.00    -0.00   0.00   0.00     0.57  -0.56  -0.54
  17   6    -0.00   0.00  -0.00    -0.00   0.00  -0.00    -0.00   0.00   0.00
  18   1    -0.00   0.00  -0.00     0.00  -0.00   0.00    -0.00  -0.00   0.00
  19   1     0.00  -0.00  -0.00    -0.00   0.00   0.00     0.01  -0.02  -0.02
  20   1    -0.00  -0.00   0.00    -0.00  -0.00   0.00    -0.00   0.00  -0.00
  21   1    -0.00   0.00   0.00    -0.00   0.00  -0.00    -0.00  -0.01  -0.01
  22   6     0.00  -0.00   0.00    -0.00   0.01  -0.00     0.00   0.00  -0.00
  23   6     0.00   0.02  -0.02     0.03   0.15  -0.22     0.00   0.00  -0.00
  24   6    -0.07   0.02   0.06     0.04  -0.01  -0.04     0.00  -0.00  -0.00
  25   6    -0.13   0.14  -0.04     0.01  -0.01   0.01     0.00  -0.00   0.00
  26   6     0.02   0.09  -0.14    -0.00  -0.00   0.00     0.00  -0.00   0.00
  27   6     0.06  -0.02  -0.05    -0.00  -0.00   0.00     0.00  -0.00  -0.00
  28   1    -0.20   0.05   0.17     0.01  -0.00  -0.01    -0.01   0.00   0.01
  29   1    -0.06  -0.31   0.46     0.00   0.01  -0.01     0.00   0.00  -0.00
  30   1     0.42  -0.48   0.12    -0.04   0.04  -0.01    -0.00   0.00  -0.00
  31   1     0.24  -0.05  -0.20    -0.13   0.03   0.11    -0.00   0.00   0.00
  32   1    -0.01  -0.07   0.09    -0.10  -0.54   0.77    -0.00  -0.00   0.00
  33   1     0.00   0.01   0.00     0.00   0.00   0.00    -0.00   0.00   0.00
                     91                     92                     93
                        a                      a                      a 
 Frequencies --  3170.1562              3389.5379              3416.5390
 Red. masses --     1.8660                 1.5015                 2.0831
 Frc consts  --     0.0000                 0.0000                 0.0000
 IR Inten    --     0.0787                 0.0579                 0.0460
 Raman Activ --     0.0000                 0.0000                 0.0000
 Depolar     --     0.0000                 0.0000                 0.0000
 Atom AN      X      Y      Z        X      Y      Z        X      Y      Z
   1   6    -0.00  -0.00   0.00    -0.00   0.00  -0.00     0.00  -0.00   0.00
   2   1    -0.00   0.00  -0.00     0.00  -0.00   0.00    -0.00   0.00  -0.00
   3   1    -0.00  -0.00  -0.00    -0.00  -0.00  -0.00     0.00   0.00  -0.00
   4   6     0.00  -0.00  -0.00     0.00   0.00  -0.00     0.00  -0.00  -0.00
   5   1    -0.00  -0.00   0.01    -0.00  -0.00   0.00    -0.00  -0.00  -0.00
   6   1    -0.01   0.01  -0.00    -0.00  -0.00  -0.00    -0.00   0.00   0.00
   7   6     0.00  -0.00  -0.00    -0.01  -0.00  -0.00     0.00  -0.01  -0.00
   8   7    -0.00   0.00   0.00    -0.14   0.02  -0.13     0.06  -0.27  -0.09
   9   1     0.00  -0.00  -0.00     0.40  -0.58   0.09    -0.40   0.51  -0.11
  10   1    -0.00  -0.00  -0.00     0.14   0.51   0.42     0.19   0.50   0.44
  11   6    -0.01  -0.00   0.00     0.00  -0.00   0.00     0.00   0.00  -0.00
  12   6     0.00  -0.23  -0.15     0.00  -0.00  -0.00     0.00  -0.00  -0.00
  13  16     0.00  -0.00  -0.00    -0.00   0.00  -0.00    -0.00  -0.00   0.00
  14   6    -0.00   0.00   0.00     0.00   0.00  -0.00     0.00   0.00  -0.00
  15   6     0.00   0.00   0.00    -0.00   0.00   0.00     0.00  -0.00  -0.00
  16   1     0.01  -0.01  -0.01    -0.00  -0.00   0.00    -0.00   0.00   0.00
  17   6    -0.00  -0.00  -0.00    -0.00   0.00  -0.00     0.00  -0.00   0.00
  18   1     0.00  -0.00   0.00     0.00  -0.00   0.00    -0.00   0.00  -0.00
  19   1    -0.00   0.00   0.00    -0.00  -0.00  -0.00    -0.00   0.00   0.00
  20   1     0.00   0.00  -0.00    -0.00  -0.00   0.00     0.00   0.00  -0.00
  21   1     0.03   0.82   0.51    -0.00   0.00   0.00    -0.00   0.00   0.00
  22   6     0.00  -0.00   0.00     0.00  -0.00  -0.00    -0.00  -0.00   0.00
  23   6    -0.00   0.00   0.00     0.00  -0.00  -0.00     0.00   0.00  -0.00
  24   6    -0.00   0.00  -0.00     0.00  -0.00   0.00    -0.00   0.00   0.00
  25   6    -0.00   0.00   0.00     0.00  -0.00   0.00    -0.00   0.00   0.00
  26   6    -0.00   0.00   0.00     0.00  -0.00   0.00     0.00  -0.00  -0.00
  27   6    -0.00   0.00   0.00    -0.00   0.00   0.00     0.00   0.00  -0.00
  28   1     0.00  -0.00  -0.00    -0.00  -0.00   0.00    -0.00   0.00   0.00
  29   1    -0.00   0.00  -0.00    -0.00   0.00  -0.00     0.00  -0.00   0.00
  30   1    -0.00   0.00  -0.00    -0.00   0.00   0.00     0.00  -0.00   0.00
  31   1    -0.00   0.00   0.00    -0.00   0.00   0.00     0.00  -0.00  -0.00
  32   1    -0.00  -0.00  -0.00    -0.00   0.00  -0.00    -0.00  -0.00   0.00
  33   1     0.00   0.00   0.00     0.00   0.00   0.00     0.00   0.00   0.00
