
                                 *****************
                                 * O   R   C   A *
                                 *****************

           --- An Ab Initio, DFT and Semiempirical electronic structure package ---

                  #######################################################
                  #                        -***-                        #
                  #          Department of theory and spectroscopy      #
                  #               Directorship: Frank Neese             #
                  #        Max Planck Institute fuer Kohlenforschung    #
                  #                Kaiser Wilhelm Platz 1               #
                  #                 D-45470 Muelheim/Ruhr               #
                  #                      Germany                        #
                  #                                                     #
                  #                  All rights reserved                #
                  #                        -***-                        #
                  #######################################################


                         Program Version 4.2.0 -  RELEASE  -


 With contributions from (in alphabetic order):
   Daniel Aravena         : Magnetic Suceptibility
   Michael Atanasov       : Ab Initio Ligand Field Theory (pilot matlab implementation)
   Alexander A. Auer      : GIAO ZORA, VPT2
   Ute Becker             : Parallelization
   Giovanni Bistoni       : ED, misc. LED, open-shell LED, HFLED
   Martin Brehm           : Molecular dynamics
   Dmytro Bykov           : SCF Hessian
   Vijay G. Chilkuri      : MRCI spin determinant printing, contributions to CSF-ICE
   Dipayan Datta          : RHF DLPNO-CCSD density
   Achintya Kumar Dutta   : EOM-CC, STEOM-CC
   Dmitry Ganyushin       : Spin-Orbit,Spin-Spin,Magnetic field MRCI
   Miquel Garcia          : C-PCM Hessian, Gaussian charge scheme
   Yang Guo               : DLPNO-NEVPT2, CIM, IAO-localization
   Andreas Hansen         : Spin unrestricted coupled pair/coupled cluster methods
   Benjamin Helmich-Paris : CASSCF linear response (MC-RPA)
   Lee Huntington         : MR-EOM, pCC
   Robert Izsak           : Overlap fitted RIJCOSX, COSX-SCS-MP3, EOM
   Christian Kollmar      : KDIIS, OOCD, Brueckner-CCSD(T), CCSD density
   Simone Kossmann        : Meta GGA functionals, TD-DFT gradient, OOMP2, MP2 Hessian
   Martin Krupicka        : AUTO-CI
   Lucas Lang             : DCDCAS
   Dagmar Lenk            : GEPOL surface, SMD
   Dimitrios Liakos       : Extrapolation schemes; Compound Job, initial MDCI parallelization
   Dimitrios Manganas     : Further ROCIS development; embedding schemes
   Dimitrios Pantazis     : SARC Basis sets
   Taras Petrenko         : DFT Hessian,TD-DFT gradient, ASA, ECA, R-Raman, ABS, FL, XAS/XES, NRVS
   Peter Pinski           : DLPNO-MP2, DLPNO-MP2 Gradient
   Christoph Reimann      : Effective Core Potentials
   Marius Retegan         : Local ZFS, SOC
   Christoph Riplinger    : Optimizer, TS searches, QM/MM, DLPNO-CCSD(T), (RO)-DLPNO pert. Triples
   Tobias Risthaus        : Range-separated hybrids, TD-DFT gradient, RPA, STAB
   Michael Roemelt        : Original ROCIS implementation
   Masaaki Saitow         : Open-shell DLPNO-CCSD energy and density
   Barbara Sandhoefer     : DKH picture change effects
   Avijit Sen             : IP-ROCIS
   Kantharuban Sivalingam : CASSCF convergence, NEVPT2, FIC-MRCI
   Bernardo de Souza      : ESD, SOC TD-DFT
   Georgi Stoychev        : AutoAux, RI-MP2 NMR
   Willem Van den Heuvel  : Paramagnetic NMR
   Boris Wezisla          : Elementary symmetry handling
   Frank Wennmohs         : Technical directorship


 We gratefully acknowledge several colleagues who have allowed us to
 interface, adapt or use parts of their codes:
   Stefan Grimme, W. Hujo, H. Kruse,             : VdW corrections, initial TS optimization,
                  C. Bannwarth                     DFT functionals, gCP, sTDA/sTD-DF
   Ed Valeev, F. Pavosevic, A. Kumar             : LibInt (2-el integral package), F12 methods
   Garnet Chan, S. Sharma, J. Yang, R. Olivares  : DMRG
   Ulf Ekstrom                                   : XCFun DFT Library
   Mihaly Kallay                                 : mrcc  (arbitrary order and MRCC methods)
   Andreas Klamt, Michael Diedenhofen            : otool_cosmo (COSMO solvation model)
   Jiri Pittner, Ondrej Demel                    : Mk-CCSD
   Frank Weinhold                                : gennbo (NPA and NBO analysis)
   Christopher J. Cramer and Donald G. Truhlar   : smd solvation model
   Lars Goerigk                                  : TD-DFT with DH, B97 family of functionals
   V. Asgeirsson, H. Jonsson                     : NEB implementation
   FAccTs GmbH                                   : IRC, NEB, NEB-TS, Multilevel, MM, QM/MM, CI optimization
   S Lehtola, MJT Oliveira, MAL Marques          : LibXC Library


 Your calculation uses the libint2 library for the computation of 2-el integrals
 For citations please refer to: http://libint.valeyev.net

 Your ORCA version has been built with support for libXC version: 4.2.3
 For citations please refer to: https://tddft.org/programs/libxc/

 This ORCA versions uses:
   CBLAS   interface :  Fast vector & matrix operations
   LAPACKE interface :  Fast linear algebra routines
   SCALAPACK package :  Parallel linear algebra routines


Your calculation utilizes the atom-pairwise dispersion correction
with the zero-damping scheme (D30)
Cite in your paper:
S.Grimme, J.Antony, S.Ehrlich and H.Krieg, J.Chem.Phys., 132, (2010), 154104 
   

XCFun DFT library Copyright 2009-2010 Ulf Ekstrom and contributors.
See http://admol.org/xcfun for more information. This is free soft-
ware; see the source code for copying conditions. There is ABSOLUTELY
NO WARRANTY; not even for MERCHANTABILITY or FITNESS FOR A PARTICULAR
PURPOSE. For details see the documentation. Scientific users of this 
library should cite U. Ekstrom, L. Visscher, R. Bast, A. J. Thorvald-
sen and K. Ruud; J.Chem.Theor.Comp. 2010, DOI: 10.1021/ct100117s
XCFun Version 0.99 
----- Orbital basis set information -----
Your calculation utilizes the basis: def2-SVP
   F. Weigend and R. Ahlrichs, Phys. Chem. Chem. Phys. 7, 3297 (2005).

================================================================================
                                        WARNINGS
                       Please study these warnings very carefully!
================================================================================


WARNING: Geometry Optimization
  ===> : Switching off AutoStart
         For restart on a previous wavefunction, please use MOREAD

INFO   : the flag for use of LIBINT has been found!

================================================================================
                                       INPUT FILE
================================================================================
NAME = 010242956.inp
|  1> # ORCA input file
|  2> # -49.36646482
|  3> ! wB97X-D3 def2-SVP Opt
|  4> * xyz 0 1
|  5>    C       -5.49060        -0.70910         0.92850
|  6>    C       -4.88010        -1.28650        -0.33950
|  7>    H       -5.18490        -0.69630        -1.21110
|  8>    H       -5.18090        -2.32640        -0.48410
|  9>    O       -3.44870        -1.33730        -0.28110
| 10>    C       -2.83920        -0.17490        -0.19970
| 11>    C       -1.62630         0.45680        -0.12360
| 12>    C       -2.81020         1.25270        -0.12830
| 13>    O       -3.39510         2.30310        -0.08950
| 14>    C       -0.20570         0.29850        -0.07540
| 15>    C        0.37410        -0.97160        -0.11390
| 16>    C        1.74400        -1.10990        -0.06780
| 17>    C        2.58880        -0.00220         0.01750
| 18>    C        2.00040         1.25850         0.05550
| 19>    C        0.62850         1.41240         0.01020
| 20>    H        0.18840         2.39800         0.04050
| 21>    H        2.60980         2.14480         0.12120
| 22>    C        4.09300        -0.21380         0.06480
| 23>    C        4.43910        -1.06230         1.29700
| 24>    H        3.96440        -2.03860         1.25400
| 25>    H        4.10690        -0.56120         2.20390
| 26>    H        5.51520        -1.20970         1.35850
| 27>    C        4.87320         1.10040         0.15630
| 28>    H        4.61600         1.64700         1.06050
| 29>    H        4.68270         1.73050        -0.70930
| 30>    H        5.93960         0.88610         0.18640
| 31>    C        4.53470        -0.94440        -1.21150
| 32>    H        5.61300        -1.08850        -1.20500
| 33>    H        4.06240        -1.91900        -1.29600
| 34>    H        4.27000        -0.35970        -2.09010
| 35>    H        2.16190        -2.10500        -0.09950
| 36>    H       -0.26310        -1.84130        -0.18030
| 37>    H       -6.57350        -0.76530         0.86730
| 38>    H       -5.15620        -1.27050         1.79830
| 39>    H       -5.20230         0.33280         1.04880
| 40> *
| 41> 
| 42>                          ****END OF INPUT****
================================================================================

                       *****************************
                       * Geometry Optimization Run *
                       *****************************

Geometry optimization settings:
Update method            Update   .... BFGS
Choice of coordinates    CoordSys .... Z-matrix Internals
Initial Hessian          InHess   .... Almoef's Model

Convergence Tolerances:
Energy Change            TolE     ....  5.0000e-06 Eh
Max. Gradient            TolMAXG  ....  3.0000e-04 Eh/bohr
RMS Gradient             TolRMSG  ....  1.0000e-04 Eh/bohr
Max. Displacement        TolMAXD  ....  4.0000e-03 bohr
RMS Displacement         TolRMSD  ....  2.0000e-03 bohr
Strict Convergence                ....  False
------------------------------------------------------------------------------
                        ORCA OPTIMIZATION COORDINATE SETUP
------------------------------------------------------------------------------

The optimization will be done in new redundant internal coordinates
Making redundant internal coordinates   ...  (new redundants) done
Evaluating the initial hessian          ...  (Almloef) done
Evaluating the coordinates              ...  done
Calculating the B-matrix                .... done
Calculating the G-matrix                .... done
Diagonalizing the G-matrix              .... done
Small eigenvalue found = 3.946e-03
Small eigenvalue found = 1.048e-02
Small eigenvalue found = 1.737e-02
Small eigenvalue found = 2.167e-02
Small eigenvalue found = 2.815e-02
The first mode is                       ....   85
The number of degrees of freedom        ....   99

    -----------------------------------------------------------------
                    Redundant Internal Coordinates


    -----------------------------------------------------------------
         Definition                    Initial Value    Approx d2E/dq
    -----------------------------------------------------------------
      1. B(C   1,C   0)                  1.5212         0.385907   
      2. B(H   2,C   1)                  1.0959         0.352421   
      3. B(H   3,C   1)                  1.0921         0.357273   
      4. B(O   4,C   1)                  1.4335         0.476967   
      5. B(C   5,O   4)                  1.3150         0.737045   
      6. B(C   6,C   5)                  1.3697         0.673276   
      7. B(C   7,C   5)                  1.4297         0.540050   
      8. B(C   7,C   6)                  1.4266         0.546255   
      9. B(O   8,C   7)                  1.2029         1.112734   
     10. B(C   9,C   6)                  1.4302         0.539006   
     11. B(C  10,C   9)                  1.3967         0.609579   
     12. B(C  11,C  10)                  1.3776         0.653832   
     13. B(C  12,C  11)                  1.3957         0.611862   
     14. B(C  13,C  12)                  1.3918         0.620748   
     15. B(C  14,C   9)                  1.3943         0.615071   
     16. B(C  14,C  13)                  1.3812         0.645210   
     17. B(H  15,C  14)                  1.0798         0.373820   
     18. B(H  16,C  13)                  1.0776         0.376889   
     19. B(C  17,C  12)                  1.5197         0.387915   
     20. B(C  18,C  17)                  1.5356         0.365974   
     21. B(H  19,C  18)                  1.0864         0.364841   
     22. B(H  20,C  18)                  1.0881         0.362644   
     23. B(H  21,C  18)                  1.0879         0.362905   
     24. B(C  22,C  17)                  1.5311         0.372096   
     25. B(H  23,C  22)                  1.0874         0.363518   
     26. B(H  24,C  22)                  1.0875         0.363469   
     27. B(H  25,C  22)                  1.0881         0.362575   
     28. B(C  26,C  17)                  1.5355         0.366078   
     29. B(H  27,C  26)                  1.0879         0.362882   
     30. B(H  28,C  26)                  1.0863         0.365025   
     31. B(H  29,C  26)                  1.0881         0.362673   
     32. B(H  30,C  11)                  1.0798         0.373912   
     33. B(H  31,C  10)                  1.0802         0.373314   
     34. B(H  32,C   0)                  1.0861         0.365319   
     35. B(H  33,C   0)                  1.0879         0.362877   
     36. B(H  34,C   0)                  1.0877         0.363123   
     37. A(C   1,C   0,H  34)          110.4509         0.326504   
     38. A(C   1,C   0,H  33)          110.3172         0.326468   
     39. A(H  32,C   0,H  33)          108.9551         0.291850   
     40. A(H  32,C   0,H  34)          108.6671         0.291881   
     41. A(H  33,C   0,H  34)          108.9293         0.291574   
     42. A(C   1,C   0,H  32)          109.4844         0.326828   
     43. A(H   2,C   1,H   3)          109.3232         0.289499   
     44. A(H   2,C   1,O   4)          109.2213         0.334452   
     45. A(C   0,C   1,O   4)          112.3489         0.378686   
     46. A(C   0,C   1,H   3)          111.1769         0.325632   
     47. A(C   0,C   1,H   2)          110.2996         0.324901   
     48. A(H   3,C   1,O   4)          104.2806         0.335213   
     49. A(C   1,O   4,C   5)          115.7223         0.421616   
     50. A(O   4,C   5,C   6)          145.2416         0.451590   
     51. A(O   4,C   5,C   7)          153.5271         0.433938   
     52. A(C   6,C   5,C   7)           61.2312         0.429749   
     53. A(C   5,C   6,C   9)          146.1426         0.429600   
     54. A(C   5,C   6,C   7)           61.4595         0.430631   
     55. A(C   7,C   6,C   9)          152.3974         0.413858   
     56. A(C   5,C   7,O   8)          149.7352         0.467645   
     57. A(C   5,C   7,C   6)           57.3094         0.414000   
     58. A(C   6,C   7,O   8)          152.9498         0.468626   
     59. A(C   6,C   9,C  14)          120.5261         0.422700   
     60. A(C  10,C   9,C  14)          118.6734         0.432124   
     61. A(C   6,C   9,C  10)          120.8005         0.422024   
     62. A(C   9,C  10,H  31)          119.2728         0.354051   
     63. A(C  11,C  10,H  31)          120.5183         0.358289   
     64. A(C   9,C  10,C  11)          120.2089         0.436903   
     65. A(C  12,C  11,H  30)          119.9311         0.354372   
     66. A(C  10,C  11,H  30)          118.4503         0.358387   
     67. A(C  10,C  11,C  12)          121.6186         0.437198   
     68. A(C  13,C  12,C  17)          122.9371         0.399403   
     69. A(C  11,C  12,C  17)          119.3732         0.398392   
     70. A(C  11,C  12,C  13)          117.6897         0.433130   
     71. A(C  14,C  13,H  16)          118.1674         0.358061   
     72. A(C  12,C  13,H  16)          120.5042         0.355718   
     73. A(C  12,C  13,C  14)          121.3284         0.437288   
     74. A(C  13,C  14,H  15)          120.3704         0.357564   
     75. A(C   9,C  14,H  15)          119.1485         0.354672   
     76. A(C   9,C  14,C  13)          120.4811         0.436565   
     77. A(C  12,C  17,C  18)          108.9648         0.364416   
     78. A(C  22,C  17,C  26)          108.1493         0.361850   
     79. A(C  18,C  17,C  26)          109.8297         0.360828   
     80. A(C  12,C  17,C  26)          108.9711         0.364434   
     81. A(C  18,C  17,C  22)          108.1484         0.361833   
     82. A(C  12,C  17,C  22)          112.7500         0.365452   
     83. A(H  20,C  18,H  21)          108.4985         0.291517   
     84. A(H  19,C  18,H  21)          108.2207         0.291794   
     85. A(C  17,C  18,H  21)          110.0702         0.323638   
     86. A(H  19,C  18,H  20)          108.2665         0.291761   
     87. A(C  17,C  18,H  20)          110.2139         0.323600   
     88. A(C  17,C  18,H  19)          111.4877         0.323921   
     89. A(H  24,C  22,H  25)          107.9273         0.291579   
     90. A(H  23,C  22,H  25)          107.9261         0.291585   
     91. A(C  17,C  22,H  25)          109.3905         0.324472   
     92. A(H  23,C  22,H  24)          109.2189         0.291698   
     93. A(C  17,C  22,H  24)          111.1315         0.324604   
     94. A(C  17,C  22,H  23)          111.1382         0.324611   
     95. A(H  28,C  26,H  29)          108.2725         0.291788   
     96. A(H  27,C  26,H  29)          108.4896         0.291517   
     97. A(C  17,C  26,H  29)          110.2129         0.323619   
     98. A(H  27,C  26,H  28)          108.2140         0.291814   
     99. A(C  17,C  26,H  28)          111.4977         0.323963   
    100. A(C  17,C  26,H  27)          110.0703         0.323650   
    101. D(O   4,C   1,C   0,H  32)   -175.5117         0.011851   
    102. D(H   3,C   1,C   0,H  33)     60.8258         0.011851   
    103. D(H   2,C   1,C   0,H  34)    -57.2486         0.011851   
    104. D(H   3,C   1,C   0,H  34)   -178.6925         0.011851   
    105. D(H   2,C   1,C   0,H  32)     62.3744         0.011851   
    106. D(H   2,C   1,C   0,H  33)   -177.7302         0.011851   
    107. D(H   3,C   1,C   0,H  32)    -59.0695         0.011851   
    108. D(O   4,C   1,C   0,H  33)    -55.6163         0.011851   
    109. D(O   4,C   1,C   0,H  34)     64.8653         0.011851   
    110. D(C   5,O   4,C   1,C   0)    -63.9335         0.017942   
    111. D(C   5,O   4,C   1,H   3)    175.5566         0.017942   
    112. D(C   5,O   4,C   1,H   2)     58.7904         0.017942   
    113. D(C   7,C   5,O   4,C   1)      0.1799         0.041105   
    114. D(C   6,C   5,O   4,C   1)   -179.5898         0.041105   
    115. D(C   7,C   6,C   5,O   4)    179.8829         0.031726   
    116. D(C   9,C   6,C   5,C   7)    179.7622         0.031726   
    117. D(C   9,C   6,C   5,O   4)     -0.3549         0.031726   
    118. D(O   8,C   7,C   6,C   5)    179.0854         0.020404   
    119. D(O   8,C   7,C   5,C   6)   -179.1747         0.019928   
    120. D(O   8,C   7,C   5,O   4)      0.9750         0.019928   
    121. D(C   5,C   7,C   6,C   9)   -179.7141         0.020404   
    122. D(O   8,C   7,C   6,C   9)     -0.6287         0.020404   
    123. D(C   6,C   7,C   5,O   4)   -179.8502         0.019928   
    124. D(C  14,C   9,C   6,C   7)     -0.3414         0.019849   
    125. D(C  14,C   9,C   6,C   5)   -179.8906         0.019849   
    126. D(C  10,C   9,C   6,C   5)      0.1542         0.019849   
    127. D(C  10,C   9,C   6,C   7)    179.7034         0.019849   
    128. D(H  31,C  10,C   9,C  14)   -179.9933         0.025661   
    129. D(H  31,C  10,C   9,C   6)     -0.0373         0.025661   
    130. D(C  11,C  10,C   9,C  14)     -0.0075         0.025661   
    131. D(C  11,C  10,C   9,C   6)    179.9485         0.025661   
    132. D(H  30,C  11,C  10,H  31)     -0.0062         0.029790   
    133. D(H  30,C  11,C  10,C   9)   -179.9918         0.029790   
    134. D(C  12,C  11,C  10,H  31)    179.9735         0.029790   
    135. D(C  12,C  11,C  10,C   9)     -0.0121         0.029790   
    136. D(C  17,C  12,C  11,H  30)     -0.0002         0.025865   
    137. D(C  17,C  12,C  11,C  10)   -179.9796         0.025865   
    138. D(C  13,C  12,C  11,C  10)      0.0248         0.025865   
    139. D(C  13,C  12,C  11,H  30)   -179.9958         0.025865   
    140. D(H  16,C  13,C  12,C  17)      0.0055         0.026667   
    141. D(H  16,C  13,C  12,C  11)   -179.9991         0.026667   
    142. D(C  14,C  13,C  12,C  17)    179.9862         0.026667   
    143. D(C  14,C  13,C  12,C  11)     -0.0184         0.026667   
    144. D(H  15,C  14,C  13,H  16)     -0.0083         0.028956   
    145. D(H  15,C  14,C  13,C  12)   -179.9894         0.028956   
    146. D(C   9,C  14,C  13,H  16)    179.9806         0.028956   
    147. D(C   9,C  14,C  13,C  12)     -0.0005         0.028956   
    148. D(H  15,C  14,C   9,C  10)   -179.9973         0.026153   
    149. D(H  15,C  14,C   9,C   6)      0.0466         0.026153   
    150. D(C  13,C  14,C   9,C  10)      0.0137         0.026153   
    151. D(C  13,C  14,C   9,C   6)   -179.9424         0.026153   
    152. D(C  26,C  17,C  12,C  13)   -120.1418         0.011202   
    153. D(C  26,C  17,C  12,C  11)     59.8629         0.011202   
    154. D(C  22,C  17,C  12,C  13)     -0.0542         0.011202   
    155. D(C  22,C  17,C  12,C  11)    179.9505         0.011202   
    156. D(C  18,C  17,C  12,C  13)    120.0281         0.011202   
    157. D(C  18,C  17,C  12,C  11)    -59.9672         0.011202   
    158. D(H  20,C  18,C  17,C  22)     63.5524         0.010722   
    159. D(H  20,C  18,C  17,C  12)    -59.3327         0.010722   
    160. D(H  19,C  18,C  17,C  26)    -58.3709         0.010722   
    161. D(H  19,C  18,C  17,C  22)   -176.1889         0.010722   
    162. D(H  20,C  18,C  17,C  26)   -178.6296         0.010722   
    163. D(H  19,C  18,C  17,C  12)     60.9261         0.010722   
    164. D(H  21,C  18,C  17,C  26)     61.7342         0.010722   
    165. D(H  21,C  18,C  17,C  22)    -56.0838         0.010722   
    166. D(H  21,C  18,C  17,C  12)   -178.9688         0.010722   
    167. D(H  25,C  22,C  17,C  18)     59.4718         0.011061   
    168. D(H  25,C  22,C  17,C  12)   -179.9772         0.011061   
    169. D(H  24,C  22,C  17,C  26)     59.6524         0.011061   
    170. D(H  24,C  22,C  17,C  18)    178.5420         0.011061   
    171. D(H  24,C  22,C  17,C  12)    -60.9070         0.011061   
    172. D(H  23,C  22,C  17,C  26)   -178.4905         0.011061   
    173. D(H  23,C  22,C  17,C  18)    -59.6009         0.011061   
    174. D(H  25,C  22,C  17,C  26)    -59.4177         0.011061   
    175. D(H  23,C  22,C  17,C  12)     60.9501         0.011061   
    176. D(H  29,C  26,C  17,C  22)    -63.5883         0.010727   
    177. D(H  29,C  26,C  17,C  18)    178.5943         0.010727   
    178. D(H  29,C  26,C  17,C  12)     59.3011         0.010727   
    179. D(H  28,C  26,C  17,C  22)    176.1395         0.010727   
    180. D(H  28,C  26,C  17,C  18)     58.3220         0.010727   
    181. D(H  28,C  26,C  17,C  12)    -60.9712         0.010727   
    182. D(H  27,C  26,C  17,C  22)     56.0362         0.010727   
    183. D(H  27,C  26,C  17,C  18)    -61.7812         0.010727   
    184. D(H  27,C  26,C  17,C  12)    178.9256         0.010727   
    -----------------------------------------------------------------

Number of atoms                         .... 35
Number of degrees of freedom            .... 184

         *************************************************************
         *                GEOMETRY OPTIMIZATION CYCLE   1            *
         *************************************************************
---------------------------------
CARTESIAN COORDINATES (ANGSTROEM)
---------------------------------
  C     -5.490600   -0.709100    0.928500
  C     -4.880100   -1.286500   -0.339500
  H     -5.184900   -0.696300   -1.211100
  H     -5.180900   -2.326400   -0.484100
  O     -3.448700   -1.337300   -0.281100
  C     -2.839200   -0.174900   -0.199700
  C     -1.626300    0.456800   -0.123600
  C     -2.810200    1.252700   -0.128300
  O     -3.395100    2.303100   -0.089500
  C     -0.205700    0.298500   -0.075400
  C      0.374100   -0.971600   -0.113900
  C      1.744000   -1.109900   -0.067800
  C      2.588800   -0.002200    0.017500
  C      2.000400    1.258500    0.055500
  C      0.628500    1.412400    0.010200
  H      0.188400    2.398000    0.040500
  H      2.609800    2.144800    0.121200
  C      4.093000   -0.213800    0.064800
  C      4.439100   -1.062300    1.297000
  H      3.964400   -2.038600    1.254000
  H      4.106900   -0.561200    2.203900
  H      5.515200   -1.209700    1.358500
  C      4.873200    1.100400    0.156300
  H      4.616000    1.647000    1.060500
  H      4.682700    1.730500   -0.709300
  H      5.939600    0.886100    0.186400
  C      4.534700   -0.944400   -1.211500
  H      5.613000   -1.088500   -1.205000
  H      4.062400   -1.919000   -1.296000
  H      4.270000   -0.359700   -2.090100
  H      2.161900   -2.105000   -0.099500
  H     -0.263100   -1.841300   -0.180300
  H     -6.573500   -0.765300    0.867300
  H     -5.156200   -1.270500    1.798300
  H     -5.202300    0.332800    1.048800

----------------------------
CARTESIAN COORDINATES (A.U.)
----------------------------
  NO LB      ZA    FRAG     MASS         X           Y           Z
   0 C     6.0000    0    12.011  -10.375730   -1.340005    1.754611
   1 C     6.0000    0    12.011   -9.222053   -2.431133   -0.641562
   2 H     1.0000    0     1.008   -9.798041   -1.315816   -2.288647
   3 H     1.0000    0     1.008   -9.790482   -4.396259   -0.914816
   4 O     8.0000    0    15.999   -6.517099   -2.527131   -0.531202
   5 C     6.0000    0    12.011   -5.365310   -0.330513   -0.377378
   6 C     6.0000    0    12.011   -3.073262    0.863227   -0.233570
   7 C     6.0000    0    12.011   -5.310508    2.367260   -0.242452
   8 O     8.0000    0    15.999   -6.415809    4.352228   -0.169130
   9 C     6.0000    0    12.011   -0.388717    0.564083   -0.142485
  10 C     6.0000    0    12.011    0.706947   -1.836058   -0.215240
  11 C     6.0000    0    12.011    3.295682   -2.097407   -0.128123
  12 C     6.0000    0    12.011    4.892123   -0.004157    0.033070
  13 C     6.0000    0    12.011    3.780208    2.378220    0.104880
  14 C     6.0000    0    12.011    1.187693    2.669049    0.019275
  15 H     1.0000    0     1.008    0.356024    4.531563    0.076534
  16 H     1.0000    0     1.008    4.931807    4.053085    0.229035
  17 C     6.0000    0    12.011    7.734649   -0.404023    0.122454
  18 C     6.0000    0    12.011    8.388683   -2.007456    2.450975
  19 H     1.0000    0     1.008    7.491630   -3.852396    2.369717
  20 H     1.0000    0     1.008    7.760916   -1.060514    4.164767
  21 H     1.0000    0     1.008   10.422218   -2.286002    2.567193
  22 C     6.0000    0    12.011    9.209013    2.079455    0.295364
  23 H     1.0000    0     1.008    8.722976    3.112379    2.004055
  24 H     1.0000    0     1.008    8.849021    3.270171   -1.340383
  25 H     1.0000    0     1.008   11.224217    1.674486    0.352245
  26 C     6.0000    0    12.011    8.569341   -1.784657   -2.289403
  27 H     1.0000    0     1.008   10.607033   -2.056967   -2.277120
  28 H     1.0000    0     1.008    7.676823   -3.626384   -2.449085
  29 H     1.0000    0     1.008    8.069131   -0.679734   -3.949717
  30 H     1.0000    0     1.008    4.085399   -3.977874   -0.188028
  31 H     1.0000    0     1.008   -0.497187   -3.479553   -0.340718
  32 H     1.0000    0     1.008  -12.422115   -1.446207    1.638959
  33 H     1.0000    0     1.008   -9.743806   -2.400897    3.398295
  34 H     1.0000    0     1.008   -9.830922    0.628901    1.981945

--------------------------------
INTERNAL COORDINATES (ANGSTROEM)
--------------------------------
 C      0   0   0     0.000000000000     0.00000000     0.00000000
 C      1   0   0     1.521159100818     0.00000000     0.00000000
 H      2   1   0     1.095867528491   110.29959880     0.00000000
 H      2   1   3     1.092145507705   111.17691804   238.55607412
 O      2   1   3     1.433491248665   112.34886623   122.11393137
 C      5   2   1     1.315024703190   115.72231974   296.06653114
 C      6   5   2     1.369657807629   145.24157684   180.41019998
 C      7   6   5     1.426568648891    61.45947603   179.88289093
 O      8   7   6     1.202893848184   152.94984269   179.08540685
 C      7   6   5     1.430205051732   146.14258662   359.64510986
 C     10   7   6     1.396711960284   120.80053825     0.15424770
 C     11  10   7     1.377634969794   120.20887287   179.94849574
 C     12  11  10     1.395694243020   121.61858897     0.00000000
 C     13  12  11     1.391769754665   117.68966488     0.02478296
 C     14  13  12     1.381248315836   121.32837433     0.00000000
 H     15  14  13     1.079821031468   120.37036805   180.01058870
 H     14  13  12     1.077595721966   120.50424368   180.00086270
 C     13  12  11     1.519746521628   119.37324145   180.02036213
 C     18  13  12     1.535595747585   108.96483469   300.03281101
 H     19  18  13     1.086439496705   111.48769431    60.92609045
 H     19  18  13     1.088083480253   110.21391148   300.66734998
 H     19  18  13     1.087887962981   110.07022296   181.03121586
 C     18  13  12     1.531079988113   112.75000856   179.95050229
 H     23  18  13     1.087428636739   111.13819739    60.95007107
 H     23  18  13     1.087464767245   111.13149718   299.09298977
 H     23  18  13     1.088135772778   109.39045904   180.02284234
 C     18  13  12     1.535518459674   108.97106570    59.86285750
 H     27  18  13     1.087905303783   110.07025679   178.92560774
 H     27  18  13     1.086302305990   111.49769279   299.02884196
 H     27  18  13     1.088061643474   110.21294682    59.30108275
 H     12  11  10     1.079754282233   118.45026763   180.00822287
 H     11  10   7     1.080190210102   119.27280233   359.96271206
 H      1   2   3     1.086083003274   109.48436373    62.37438654
 H      1   2   3     1.087908709405   110.31717363   182.26976899
 H      1   2   3     1.087724500965   110.45092990   302.75141329

---------------------------
INTERNAL COORDINATES (A.U.)
---------------------------
 C      0   0   0     0.000000000000     0.00000000     0.00000000
 C      1   0   0     2.874574106667     0.00000000     0.00000000
 H      2   1   0     2.070889507904   110.29959880     0.00000000
 H      2   1   3     2.063855907955   111.17691804   238.55607412
 O      2   1   3     2.708905875350   112.34886623   122.11393137
 C      5   2   1     2.485036548370   115.72231974   296.06653114
 C      6   5   2     2.588278153606   145.24157684   180.41019998
 C      7   6   5     2.695824057643    61.45947603   179.88289093
 O      8   7   6     2.273139941247   152.94984269   179.08540685
 C      7   6   5     2.702695863124   146.14258662   359.64510986
 C     10   7   6     2.639403092909   120.80053825     0.15424770
 C     11  10   7     2.603352805424   120.20887287   179.94849574
 C     12  11  10     2.637479885999   121.61858897     0.00000000
 C     13  12  11     2.630063677791   117.68966488     0.02478296
 C     14  13  12     2.610181039870   121.32837433     0.00000000
 H     15  14  13     2.040566023122   120.37036805   180.01058870
 H     14  13  12     2.036360797601   120.50424368   180.00086270
 C     13  12  11     2.871904718856   119.37324145   180.02036213
 C     18  13  12     2.901855415349   108.96483469   300.03281101
 H     19  18  13     2.053073109847   111.48769431    60.92609045
 H     19  18  13     2.056179788523   110.21391148   300.66734998
 H     19  18  13     2.055810314424   110.07022296   181.03121586
 C     18  13  12     2.893321866661   112.75000856   179.95050229
 H     23  18  13     2.054942313620   111.13819739    60.95007107
 H     23  18  13     2.055010590382   111.13149718   299.09298977
 H     23  18  13     2.056278607074   109.39045904   180.02284234
 C     18  13  12     2.901709362365   108.97106570    59.86285750
 H     27  18  13     2.055843083791   110.07025679   178.92560774
 H     27  18  13     2.052813856969   111.49769279   299.02884196
 H     27  18  13     2.056138522991   110.21294682    59.30108275
 H     12  11  10     2.040439885349   118.45026763   180.00822287
 H     11  10   7     2.041263669635   119.27280233   359.96271206
 H      1   2   3     2.052399434894   109.48436373    62.37438654
 H      1   2   3     2.055849519484   110.31717363   182.26976899
 H      1   2   3     2.055501415980   110.45092990   302.75141329

---------------------
BASIS SET INFORMATION
---------------------
There are 3 groups of distinct atoms

 Group   1 Type C   : 7s4p1d contracted to 3s2p1d pattern {511/31/1}
 Group   2 Type H   : 4s1p contracted to 2s1p pattern {31/1}
 Group   3 Type O   : 7s4p1d contracted to 3s2p1d pattern {511/31/1}

Atom   0C    basis set group =>   1
Atom   1C    basis set group =>   1
Atom   2H    basis set group =>   2
Atom   3H    basis set group =>   2
Atom   4O    basis set group =>   3
Atom   5C    basis set group =>   1
Atom   6C    basis set group =>   1
Atom   7C    basis set group =>   1
Atom   8O    basis set group =>   3
Atom   9C    basis set group =>   1
Atom  10C    basis set group =>   1
Atom  11C    basis set group =>   1
Atom  12C    basis set group =>   1
Atom  13C    basis set group =>   1
Atom  14C    basis set group =>   1
Atom  15H    basis set group =>   2
Atom  16H    basis set group =>   2
Atom  17C    basis set group =>   1
Atom  18C    basis set group =>   1
Atom  19H    basis set group =>   2
Atom  20H    basis set group =>   2
Atom  21H    basis set group =>   2
Atom  22C    basis set group =>   1
Atom  23H    basis set group =>   2
Atom  24H    basis set group =>   2
Atom  25H    basis set group =>   2
Atom  26C    basis set group =>   1
Atom  27H    basis set group =>   2
Atom  28H    basis set group =>   2
Atom  29H    basis set group =>   2
Atom  30H    basis set group =>   2
Atom  31H    basis set group =>   2
Atom  32H    basis set group =>   2
Atom  33H    basis set group =>   2
Atom  34H    basis set group =>   2
------------------------------------------------------------------------------
                           ORCA GTO INTEGRAL CALCULATION
------------------------------------------------------------------------------

                         BASIS SET STATISTICS AND STARTUP INFO

 # of primitive gaussian shells          ...  294
 # of primitive gaussian functions       ...  534
 # of contracted shells                  ...  156
 # of contracted basis functions         ...  328
 Highest angular momentum                ...    2
 Maximum contraction depth               ...    5
 Integral package used                   ... LIBINT
 Integral threshhold            Thresh   ...  2.500e-11
 Primitive cut-off              TCut     ...  2.500e-12


------------------------------ INTEGRAL EVALUATION ----------------------------


 * One electron integrals 
 Pre-screening matrix                    ... done
 Shell pair data                         ... done (   0.003 sec)

-------------------------------------------------------------------------------
                                 ORCA SCF
-------------------------------------------------------------------------------

------------
SCF SETTINGS
------------
Hamiltonian:
 Density Functional     Method          .... DFT(GTOs)
 Exchange Functional    Exchange        .... WB97X-D3
 Correlation Functional Correlation     .... WB97X-D3
 Gradients option       PostSCFGGA      .... off
 Hybrid DFT is turned on
   Fraction HF Exchange ScalHFX         ....  0.195728
   Scaling of DF-GGA-X  ScalDFX         ....  0.000000
   Scaling of DF-GGA-C  ScalDFC         ....  1.000000
   Scaling of DF-LDA-C  ScalLDAC        ....  1.000000
   Perturbative correction              ....  0.000000
   Density functional embedding theory  .... OFF
 Long-range corrected/Screened/Range-Separated Hybrid DFT is turned on
   Amount of maximum screened exact exchange              ....  0.804272
   Range separation parameter mu (erf(mu*r12)/r12)        ....  0.250000


General Settings:
 Integral files         IntName         .... 010242956
 Hartree-Fock type      HFTyp           .... RHF
 Total Charge           Charge          ....    0
 Multiplicity           Mult            ....    1
 Number of Electrons    NEL             ....  124
 Basis Dimension        Dim             ....  328
 Nuclear Repulsion      ENuc            ....   1121.4328704236 Eh

Convergence Acceleration:
 DIIS                   CNVDIIS         .... on
   Start iteration      DIISMaxIt       ....    12
   Startup error        DIISStart       ....  0.200000
   # of expansion vecs  DIISMaxEq       ....     5
   Bias factor          DIISBfac        ....   1.050
   Max. coefficient     DIISMaxC        ....  10.000
 Newton-Raphson         CNVNR           .... off
 SOSCF                  CNVSOSCF        .... on
   Start iteration      SOSCFMaxIt      ....   150
   Startup grad/error   SOSCFStart      ....  0.003300
 Level Shifting         CNVShift        .... on
   Level shift para.    LevelShift      ....    0.2500
   Turn off err/grad.   ShiftErr        ....    0.0010
 Zerner damping         CNVZerner       .... off
 Static damping         CNVDamp         .... on
   Fraction old density DampFac         ....    0.7000
   Max. Damping (<1)    DampMax         ....    0.9800
   Min. Damping (>=0)   DampMin         ....    0.0000
   Turn off err/grad.   DampErr         ....    0.1000
 Fernandez-Rico         CNVRico         .... off

SCF Procedure:
 Maximum # iterations   MaxIter         ....   125
 SCF integral mode      SCFMode         .... Direct
   Integral package                     .... LIBINT
 Reset frequency        DirectResetFreq ....    20
 Integral Threshold     Thresh          ....  2.500e-11 Eh
 Primitive CutOff       TCut            ....  2.500e-12 Eh

Convergence Tolerance:
 Convergence Check Mode ConvCheckMode   .... Total+1el-Energy
 Convergence forced     ConvForced      .... 0
 Energy Change          TolE            ....  1.000e-08 Eh
 1-El. energy change                    ....  1.000e-05 Eh
 Orbital Gradient       TolG            ....  1.000e-05
 Orbital Rotation angle TolX            ....  1.000e-05
 DIIS Error             TolErr          ....  5.000e-07


Diagonalization of the overlap matrix:
Smallest eigenvalue                        ... 2.514e-04
Time for diagonalization                   ...    0.460 sec
Threshold for overlap eigenvalues          ... 1.000e-08
Number of eigenvalues below threshold      ... 0
Time for construction of square roots      ...    0.007 sec
Total time needed                          ...    0.468 sec

-------------------
DFT GRID GENERATION
-------------------

General Integration Accuracy     IntAcc      ...  4.340
Radial Grid Type                 RadialGrid  ... Gauss-Chebyshev
Angular Grid (max. acc.)         AngularGrid ... Lebedev-110
Angular grid pruning method      GridPruning ... 3 (G Style)
Weight generation scheme         WeightScheme... Becke
Basis function cutoff            BFCut       ...    1.0000e-11
Integration weight cutoff        WCut        ...    1.0000e-14
Grids for H and He will be reduced by one unit

# of grid points (after initial pruning)     ...  42564 (   0.0 sec)
# of grid points (after weights+screening)   ...  38281 (   0.3 sec)
nearest neighbour list constructed           ...    0.0 sec
Grid point re-assignment to atoms done       ...    0.0 sec
Grid point division into batches done        ...    0.0 sec
Reduced shell lists constructed in    0.4 sec

Total number of grid points                  ...    38281
Total number of batches                      ...      620
Average number of points per batch           ...       61
Average number of grid points per atom       ...     1094
Average number of shells per batch           ...    76.53 (49.06%)
Average number of basis functions per batch  ...   153.89 (46.92%)
Average number of large shells per batch     ...    53.81 (70.32%)
Average number of large basis fcns per batch ...   107.70 (69.98%)
Maximum spatial batch extension              ...  22.13, 21.72, 30.19 au
Average spatial batch extension              ...   3.15,  3.42,  3.76 au

Time for grid setup =    0.657 sec

------------------------------
INITIAL GUESS: MODEL POTENTIAL
------------------------------
Loading Hartree-Fock densities                     ... done
Calculating cut-offs                               ... done
Setting up the integral package                    ... done
Initializing the effective Hamiltonian             ... done
Starting the Coulomb interaction                   ... done (   0.5 sec)
Reading the grid                                   ... done
Mapping shells                                     ... done
Starting the XC term evaluation                    ... done (   0.5 sec)
  promolecular density results
     # of electrons  =    123.991863742
     EX              =    -98.398811830
     EC              =     -4.124453419
     EX+EC           =   -102.523265249
Transforming the Hamiltonian                       ... done (   0.0 sec)
Diagonalizing the Hamiltonian                      ... done (   0.0 sec)
Back transforming the eigenvectors                 ... done (   0.0 sec)
Now organizing SCF variables                       ... done
                      ------------------
                      INITIAL GUESS DONE (   1.8 sec)
                      ------------------
--------------
SCF ITERATIONS
--------------
ITER       Energy         Delta-E        Max-DP      RMS-DP      [F,P]     Damp
               ***  Starting incremental Fock matrix formation  ***
  0   -731.6836630247   0.000000000000 0.10372900  0.00180218  0.2572250 0.7000
  1   -731.8423124414  -0.158649416698 0.09318629  0.00135924  0.1223922 0.7000
                               ***Turning on DIIS***
  2   -731.9226489983  -0.080336556879 0.16937560  0.00266419  0.0493245 0.0000
  3   -732.0571774596  -0.134528461341 0.05591157  0.00080268  0.0598961 0.0000
  4   -732.0751359570  -0.017958497421 0.01209623  0.00017683  0.0144949 0.0000
  5   -732.0758233943  -0.000687437276 0.00649256  0.00007595  0.0082629 0.0000
                      *** Initiating the SOSCF procedure ***
                           *** Shutting down DIIS ***
                      *** Re-Reading the Fockian *** 
                      *** Removing any level shift *** 
ITER      Energy       Delta-E        Grad      Rot      Max-DP    RMS-DP
  6   -732.07593929  -0.0001158943  0.000727  0.000727  0.003270  0.000045
               *** Restarting incremental Fock matrix formation ***
  7   -732.07595737  -0.0000180781  0.000238  0.000592  0.001642  0.000018
  8   -732.07595895  -0.0000015864  0.000163  0.000226  0.000481  0.000007
  9   -732.07596019  -0.0000012357  0.000036  0.000121  0.000170  0.000003
 10   -732.07596021  -0.0000000259  0.000024  0.000025  0.000069  0.000001
 11   -732.07596024  -0.0000000299  0.000004  0.000009  0.000034  0.000000
 12   -732.07596025  -0.0000000015  0.000004  0.000006  0.000012  0.000000
                  ***Gradient check signals convergence***
              ***Rediagonalizing the Fockian in SOSCF/NRSCF***

               *****************************************************
               *                     SUCCESS                       *
               *           SCF CONVERGED AFTER  13 CYCLES          *
               *****************************************************

Setting up the final grid:

General Integration Accuracy     IntAcc      ...  4.670
Radial Grid Type                 RadialGrid  ... Gauss-Chebyshev
Angular Grid (max. acc.)         AngularGrid ... Lebedev-302
Angular grid pruning method      GridPruning ... 3 (G Style)
Weight generation scheme         WeightScheme... Becke
Basis function cutoff            BFCut       ...    1.0000e-11
Integration weight cutoff        WCut        ...    1.0000e-14
Grids for H and He will be reduced by one unit

# of grid points (after initial pruning)     ... 166696 (   0.1 sec)
# of grid points (after weights+screening)   ... 146788 (   1.1 sec)
nearest neighbour list constructed           ...    0.0 sec
Grid point re-assignment to atoms done       ...    0.0 sec
Grid point division into batches done        ...    0.5 sec
Reduced shell lists constructed in    1.6 sec

Total number of grid points                  ...   146788
Total number of batches                      ...     2310
Average number of points per batch           ...       63
Average number of grid points per atom       ...     4194
Average number of shells per batch           ...    69.69 (44.67%)
Average number of basis functions per batch  ...   138.95 (42.36%)
Average number of large shells per batch     ...    48.26 (69.25%)
Average number of large basis fcns per batch ...    95.51 (68.74%)
Maximum spatial batch extension              ...  19.11, 21.73, 30.74 au
Average spatial batch extension              ...   2.17,  2.32,  2.44 au

Final grid set up in    2.8 sec
Final integration                            ... done (   2.7 sec)
Change in XC energy                          ...     0.000853743
Integrated number of electrons               ...   124.000022957
Previous integrated no of electrons          ...   123.996935487

----------------
TOTAL SCF ENERGY
----------------

Total Energy       :         -732.07510650 Eh          -19920.77640 eV

Components:
Nuclear Repulsion  :         1121.43287042 Eh           30515.73979 eV
Electronic Energy  :        -1853.50797693 Eh          -50436.51620 eV
One Electron Energy:        -3216.74746427 Eh          -87532.14855 eV
Two Electron Energy:         1363.23948734 Eh           37095.63236 eV

Virial components:
Potential Energy   :        -1456.57884208 Eh          -39635.52532 eV
Kinetic Energy     :          724.50373557 Eh           19714.74892 eV
Virial Ratio       :            2.01045042


DFT components:
N(Alpha)           :       62.000011478361 electrons
N(Beta)            :       62.000011478361 electrons
N(Total)           :      124.000022956722 electrons
E(XC)              :      -72.145706790158 Eh       
DFET-embed. en.    :        0.000000000000 Eh       

---------------
SCF CONVERGENCE
---------------

  Last Energy change         ...   -2.2169e-10  Tolerance :   1.0000e-08
  Last MAX-Density change    ...    4.1615e-06  Tolerance :   1.0000e-07
  Last RMS-Density change    ...    7.6126e-08  Tolerance :   5.0000e-09
  Last Orbital Gradient      ...    1.1854e-06  Tolerance :   1.0000e-05
  Last Orbital Rotation      ...    3.8004e-06  Tolerance :   1.0000e-05

             **** THE GBW FILE WAS UPDATED (010242956.gbw) ****
             **** DENSITY FILE WAS UPDATED (010242956.scfp) ****
             **** ENERGY FILE WAS UPDATED (010242956.en.tmp) ****
             **** THE GBW FILE WAS UPDATED (010242956.gbw) ****
             **** DENSITY FILE WAS UPDATED (010242956.scfp) ****
----------------
ORBITAL ENERGIES
----------------

  NO   OCC          E(Eh)            E(eV) 
   0   2.0000     -19.306836      -525.3657 
   1   2.0000     -19.199629      -522.4485 
   2   2.0000     -10.378425      -282.4113 
   3   2.0000     -10.377310      -282.3810 
   4   2.0000     -10.360565      -281.9253 
   5   2.0000     -10.323748      -280.9235 
   6   2.0000     -10.310060      -280.5510 
   7   2.0000     -10.308389      -280.5055 
   8   2.0000     -10.305106      -280.4162 
   9   2.0000     -10.301685      -280.3231 
  10   2.0000     -10.299889      -280.2742 
  11   2.0000     -10.295660      -280.1592 
  12   2.0000     -10.294056      -280.1155 
  13   2.0000     -10.291514      -280.0463 
  14   2.0000     -10.280961      -279.7592 
  15   2.0000     -10.280916      -279.7580 
  16   2.0000     -10.280874      -279.7568 
  17   2.0000      -1.209775       -32.9196 
  18   2.0000      -1.122885       -30.5553 
  19   2.0000      -1.015113       -27.6226 
  20   2.0000      -0.988176       -26.8896 
  21   2.0000      -0.941823       -25.6283 
  22   2.0000      -0.890774       -24.2392 
  23   2.0000      -0.868660       -23.6374 
  24   2.0000      -0.867289       -23.6001 
  25   2.0000      -0.802355       -21.8332 
  26   2.0000      -0.801113       -21.7994 
  27   2.0000      -0.779699       -21.2167 
  28   2.0000      -0.753232       -20.4965 
  29   2.0000      -0.720606       -19.6087 
  30   2.0000      -0.670208       -18.2373 
  31   2.0000      -0.663431       -18.0529 
  32   2.0000      -0.660676       -17.9779 
  33   2.0000      -0.618954       -16.8426 
  34   2.0000      -0.589971       -16.0539 
  35   2.0000      -0.583984       -15.8910 
  36   2.0000      -0.582288       -15.8449 
  37   2.0000      -0.555085       -15.1046 
  38   2.0000      -0.550824       -14.9887 
  39   2.0000      -0.549178       -14.9439 
  40   2.0000      -0.542585       -14.7645 
  41   2.0000      -0.534158       -14.5352 
  42   2.0000      -0.529207       -14.4005 
  43   2.0000      -0.525738       -14.3061 
  44   2.0000      -0.508170       -13.8280 
  45   2.0000      -0.502175       -13.6649 
  46   2.0000      -0.499479       -13.5915 
  47   2.0000      -0.492263       -13.3951 
  48   2.0000      -0.480379       -13.0718 
  49   2.0000      -0.475489       -12.9387 
  50   2.0000      -0.467157       -12.7120 
  51   2.0000      -0.465165       -12.6578 
  52   2.0000      -0.453715       -12.3462 
  53   2.0000      -0.443778       -12.0758 
  54   2.0000      -0.437363       -11.9013 
  55   2.0000      -0.433147       -11.7865 
  56   2.0000      -0.423842       -11.5333 
  57   2.0000      -0.414689       -11.2843 
  58   2.0000      -0.378929       -10.3112 
  59   2.0000      -0.351423        -9.5627 
  60   2.0000      -0.318997        -8.6804 
  61   2.0000      -0.307656        -8.3717 
  62   0.0000       0.022433         0.6104 
  63   0.0000       0.062421         1.6986 
  64   0.0000       0.128765         3.5039 
  65   0.0000       0.131606         3.5812 
  66   0.0000       0.143086         3.8936 
  67   0.0000       0.160232         4.3601 
  68   0.0000       0.163056         4.4370 
  69   0.0000       0.172730         4.7002 
  70   0.0000       0.180103         4.9008 
  71   0.0000       0.185939         5.0597 
  72   0.0000       0.193660         5.2697 
  73   0.0000       0.197380         5.3710 
  74   0.0000       0.198035         5.3888 
  75   0.0000       0.208374         5.6701 
  76   0.0000       0.210051         5.7158 
  77   0.0000       0.215862         5.8739 
  78   0.0000       0.219053         5.9607 
  79   0.0000       0.239931         6.5288 
  80   0.0000       0.247026         6.7219 
  81   0.0000       0.247442         6.7332 
  82   0.0000       0.259449         7.0600 
  83   0.0000       0.262633         7.1466 
  84   0.0000       0.272742         7.4217 
  85   0.0000       0.275688         7.5018 
  86   0.0000       0.280218         7.6251 
  87   0.0000       0.281476         7.6594 
  88   0.0000       0.291369         7.9286 
  89   0.0000       0.304296         8.2803 
  90   0.0000       0.315808         8.5936 
  91   0.0000       0.321589         8.7509 
  92   0.0000       0.334107         9.0915 
  93   0.0000       0.337803         9.1921 
  94   0.0000       0.358909         9.7664 
  95   0.0000       0.362740         9.8707 
  96   0.0000       0.369549        10.0559 
  97   0.0000       0.390159        10.6168 
  98   0.0000       0.418308        11.3827 
  99   0.0000       0.433434        11.7943 
 100   0.0000       0.448517        12.2048 
 101   0.0000       0.456627        12.4255 
 102   0.0000       0.479735        13.0542 
 103   0.0000       0.489794        13.3280 
 104   0.0000       0.496303        13.5051 
 105   0.0000       0.502409        13.6712 
 106   0.0000       0.514074        13.9887 
 107   0.0000       0.517519        14.0824 
 108   0.0000       0.530201        14.4275 
 109   0.0000       0.540010        14.6944 
 110   0.0000       0.543717        14.7953 
 111   0.0000       0.547849        14.9077 
 112   0.0000       0.558973        15.2104 
 113   0.0000       0.571433        15.5495 
 114   0.0000       0.578153        15.7323 
 115   0.0000       0.591396        16.0927 
 116   0.0000       0.612251        16.6602 
 117   0.0000       0.616243        16.7688 
 118   0.0000       0.632686        17.2162 
 119   0.0000       0.637429        17.3453 
 120   0.0000       0.638600        17.3772 
 121   0.0000       0.665516        18.1096 
 122   0.0000       0.679144        18.4804 
 123   0.0000       0.682925        18.5833 
 124   0.0000       0.686627        18.6841 
 125   0.0000       0.696261        18.9462 
 126   0.0000       0.704521        19.1710 
 127   0.0000       0.711718        19.3668 
 128   0.0000       0.716842        19.5063 
 129   0.0000       0.724174        19.7058 
 130   0.0000       0.730306        19.8726 
 131   0.0000       0.734084        19.9755 
 132   0.0000       0.740457        20.1489 
 133   0.0000       0.745034        20.2734 
 134   0.0000       0.747394        20.3376 
 135   0.0000       0.752982        20.4897 
 136   0.0000       0.754281        20.5250 
 137   0.0000       0.756530        20.5862 
 138   0.0000       0.767256        20.8781 
 139   0.0000       0.767857        20.8944 
 140   0.0000       0.773177        21.0392 
 141   0.0000       0.776072        21.1180 
 142   0.0000       0.781995        21.2792 
 143   0.0000       0.787721        21.4350 
 144   0.0000       0.790672        21.5153 
 145   0.0000       0.796065        21.6620 
 146   0.0000       0.805299        21.9133 
 147   0.0000       0.808181        21.9917 
 148   0.0000       0.809353        22.0236 
 149   0.0000       0.810983        22.0680 
 150   0.0000       0.812935        22.1211 
 151   0.0000       0.827627        22.5209 
 152   0.0000       0.834233        22.7006 
 153   0.0000       0.838187        22.8082 
 154   0.0000       0.839259        22.8374 
 155   0.0000       0.856022        23.2935 
 156   0.0000       0.869719        23.6663 
 157   0.0000       0.876284        23.8449 
 158   0.0000       0.883356        24.0373 
 159   0.0000       0.898673        24.4541 
 160   0.0000       0.907029        24.6815 
 161   0.0000       0.915929        24.9237 
 162   0.0000       0.932639        25.3784 
 163   0.0000       0.952255        25.9122 
 164   0.0000       0.973225        26.4828 
 165   0.0000       1.005753        27.3679 
 166   0.0000       1.015180        27.6244 
 167   0.0000       1.034586        28.1525 
 168   0.0000       1.058828        28.8122 
 169   0.0000       1.066593        29.0235 
 170   0.0000       1.095251        29.8033 
 171   0.0000       1.120169        30.4813 
 172   0.0000       1.129485        30.7348 
 173   0.0000       1.146212        31.1900 
 174   0.0000       1.147275        31.2189 
 175   0.0000       1.165678        31.7197 
 176   0.0000       1.195244        32.5243 
 177   0.0000       1.204478        32.7755 
 178   0.0000       1.216769        33.1100 
 179   0.0000       1.233962        33.5778 
 180   0.0000       1.269665        34.5494 
 181   0.0000       1.290819        35.1250 
 182   0.0000       1.312489        35.7146 
 183   0.0000       1.319552        35.9068 
 184   0.0000       1.336402        36.3654 
 185   0.0000       1.351546        36.7774 
 186   0.0000       1.358058        36.9546 
 187   0.0000       1.363569        37.1046 
 188   0.0000       1.366787        37.1922 
 189   0.0000       1.376421        37.4543 
 190   0.0000       1.382050        37.6075 
 191   0.0000       1.403589        38.1936 
 192   0.0000       1.408998        38.3408 
 193   0.0000       1.421079        38.6695 
 194   0.0000       1.446649        39.3653 
 195   0.0000       1.462345        39.7924 
 196   0.0000       1.485043        40.4101 
 197   0.0000       1.511429        41.1281 
 198   0.0000       1.555651        42.3314 
 199   0.0000       1.577586        42.9283 
 200   0.0000       1.607683        43.7473 
 201   0.0000       1.616155        43.9778 
 202   0.0000       1.625829        44.2410 
 203   0.0000       1.631925        44.4069 
 204   0.0000       1.636899        44.5423 
 205   0.0000       1.639530        44.6139 
 206   0.0000       1.658841        45.1394 
 207   0.0000       1.661272        45.2055 
 208   0.0000       1.668517        45.4027 
 209   0.0000       1.698542        46.2197 
 210   0.0000       1.743579        47.4452 
 211   0.0000       1.748296        47.5735 
 212   0.0000       1.781882        48.4875 
 213   0.0000       1.785641        48.5898 
 214   0.0000       1.794324        48.8260 
 215   0.0000       1.801572        49.0233 
 216   0.0000       1.810147        49.2566 
 217   0.0000       1.817345        49.4525 
 218   0.0000       1.825729        49.6806 
 219   0.0000       1.837197        49.9927 
 220   0.0000       1.843210        50.1563 
 221   0.0000       1.860759        50.6338 
 222   0.0000       1.868255        50.8378 
 223   0.0000       1.876580        51.0643 
 224   0.0000       1.880079        51.1595 
 225   0.0000       1.884379        51.2766 
 226   0.0000       1.893399        51.5220 
 227   0.0000       1.908793        51.9409 
 228   0.0000       1.911488        52.0142 
 229   0.0000       1.923295        52.3355 
 230   0.0000       1.926466        52.4218 
 231   0.0000       1.931732        52.5651 
 232   0.0000       1.936813        52.7034 
 233   0.0000       1.947754        53.0011 
 234   0.0000       1.951817        53.1116 
 235   0.0000       1.957313        53.2612 
 236   0.0000       1.961185        53.3665 
 237   0.0000       1.970879        53.6303 
 238   0.0000       1.981775        53.9268 
 239   0.0000       1.994910        54.2843 
 240   0.0000       2.008620        54.6573 
 241   0.0000       2.029295        55.2199 
 242   0.0000       2.036620        55.4192 
 243   0.0000       2.041718        55.5580 
 244   0.0000       2.048066        55.7307 
 245   0.0000       2.051273        55.8180 
 246   0.0000       2.084207        56.7142 
 247   0.0000       2.090141        56.8756 
 248   0.0000       2.099884        57.1407 
 249   0.0000       2.103476        57.2385 
 250   0.0000       2.118822        57.6561 
 251   0.0000       2.138914        58.2028 
 252   0.0000       2.149674        58.4956 
 253   0.0000       2.169284        59.0292 
 254   0.0000       2.184315        59.4382 
 255   0.0000       2.197061        59.7851 
 256   0.0000       2.213608        60.2353 
 257   0.0000       2.231465        60.7213 
 258   0.0000       2.238037        60.9001 
 259   0.0000       2.242399        61.0188 
 260   0.0000       2.273249        61.8583 
 261   0.0000       2.284876        62.1746 
 262   0.0000       2.287420        62.2439 
 263   0.0000       2.309389        62.8417 
 264   0.0000       2.323658        63.2300 
 265   0.0000       2.332965        63.4832 
 266   0.0000       2.354978        64.0822 
 267   0.0000       2.362334        64.2824 
 268   0.0000       2.388768        65.0017 
 269   0.0000       2.401477        65.3475 
 270   0.0000       2.420568        65.8670 
 271   0.0000       2.445775        66.5529 
 272   0.0000       2.455048        66.8052 
 273   0.0000       2.456361        66.8410 
 274   0.0000       2.484317        67.6017 
 275   0.0000       2.500062        68.0301 
 276   0.0000       2.505460        68.1770 
 277   0.0000       2.516980        68.4905 
 278   0.0000       2.530418        68.8562 
 279   0.0000       2.535964        69.0071 
 280   0.0000       2.564056        69.7715 
 281   0.0000       2.576398        70.1074 
 282   0.0000       2.601756        70.7974 
 283   0.0000       2.613792        71.1249 
 284   0.0000       2.640152        71.8422 
 285   0.0000       2.663937        72.4894 
 286   0.0000       2.716587        73.9221 
 287   0.0000       2.724816        74.1460 
 288   0.0000       2.731450        74.3265 
 289   0.0000       2.740763        74.5799 
 290   0.0000       2.765079        75.2416 
 291   0.0000       2.766876        75.2905 
 292   0.0000       2.771937        75.4283 
 293   0.0000       2.794371        76.0387 
 294   0.0000       2.795986        76.0826 
 295   0.0000       2.820657        76.7540 
 296   0.0000       2.828141        76.9576 
 297   0.0000       2.848177        77.5028 
 298   0.0000       2.873783        78.1996 
 299   0.0000       2.885827        78.5273 
 300   0.0000       2.931522        79.7708 
 301   0.0000       2.960108        80.5486 
 302   0.0000       2.965225        80.6879 
 303   0.0000       2.971008        80.8452 
 304   0.0000       2.986237        81.2596 
 305   0.0000       3.007260        81.8317 
 306   0.0000       3.010287        81.9141 
 307   0.0000       3.020664        82.1964 
 308   0.0000       3.032991        82.5319 
 309   0.0000       3.058329        83.2214 
 310   0.0000       3.060531        83.2813 
 311   0.0000       3.079990        83.8108 
 312   0.0000       3.086199        83.9797 
 313   0.0000       3.105573        84.5069 
 314   0.0000       3.112508        84.6957 
 315   0.0000       3.162805        86.0643 
 316   0.0000       3.182223        86.5927 
 317   0.0000       3.191666        86.8496 
 318   0.0000       3.225049        87.7580 
 319   0.0000       3.247793        88.3769 
 320   0.0000       3.272929        89.0609 
 321   0.0000       3.380793        91.9961 
 322   0.0000       3.399477        92.5045 
 323   0.0000       3.429483        93.3210 
 324   0.0000       3.691471       100.4500 
 325   0.0000       3.739083       101.7456 
 326   0.0000       3.797806       103.3436 
 327   0.0000       3.879374       105.5631 

                    ********************************
                    * MULLIKEN POPULATION ANALYSIS *
                    ********************************

-----------------------
MULLIKEN ATOMIC CHARGES
-----------------------
   0 C :   -0.107091
   1 C :    0.150105
   2 H :    0.052371
   3 H :    0.049334
   4 O :   -0.295032
   5 C :    0.059479
   6 C :   -0.021289
   7 C :    0.095045
   8 O :   -0.227362
   9 C :    0.006325
  10 C :   -0.015891
  11 C :   -0.046950
  12 C :    0.089131
  13 C :   -0.045714
  14 C :   -0.007852
  15 H :    0.021715
  16 H :    0.001863
  17 C :   -0.372421
  18 C :    0.055793
  19 H :    0.022803
  20 H :    0.031559
  21 H :    0.025103
  22 C :    0.057625
  23 H :    0.032150
  24 H :    0.032488
  25 H :    0.027566
  26 C :    0.053610
  27 H :    0.025327
  28 H :    0.023108
  29 H :    0.032808
  30 H :    0.004070
  31 H :    0.013083
  32 H :    0.050235
  33 H :    0.050535
  34 H :    0.076373
Sum of atomic charges:    0.0000000

--------------------------------
MULLIKEN REDUCED ORBITAL CHARGES
--------------------------------
  0 C s       :     3.032927  s :     3.032927
      pz      :     0.978501  p :     3.047238
      px      :     1.014928
      py      :     1.053809
      dz2     :     0.007103  d :     0.026925
      dxz     :     0.003667
      dyz     :     0.006310
      dx2y2   :     0.007526
      dxy     :     0.002320
  1 C s       :     3.038102  s :     3.038102
      pz      :     1.035380  p :     2.751249
      px      :     0.667124
      py      :     1.048745
      dz2     :     0.011738  d :     0.060545
      dxz     :     0.012865
      dyz     :     0.007417
      dx2y2   :     0.019570
      dxy     :     0.008955
  2 H s       :     0.926212  s :     0.926212
      pz      :     0.010753  p :     0.021417
      px      :     0.002980
      py      :     0.007683
  3 H s       :     0.929630  s :     0.929630
      pz      :     0.004568  p :     0.021036
      px      :     0.002487
      py      :     0.013981
  4 O s       :     3.726365  s :     3.726365
      pz      :     1.758523  p :     4.550332
      px      :     1.315520
      py      :     1.476289
      dz2     :     0.002380  d :     0.018334
      dxz     :     0.001764
      dyz     :     0.002893
      dx2y2   :     0.006660
      dxy     :     0.004637
  5 C s       :     3.139309  s :     3.139309
      pz      :     0.875275  p :     2.709296
      px      :     1.031985
      py      :     0.802036
      dz2     :     0.005962  d :     0.091917
      dxz     :     0.010430
      dyz     :     0.021701
      dx2y2   :     0.027817
      dxy     :     0.026007
  6 C s       :     3.239743  s :     3.239743
      pz      :     0.975835  p :     2.729578
      px      :     0.645330
      py      :     1.108413
      dz2     :     0.003203  d :     0.051968
      dxz     :     0.015936
      dyz     :     0.001099
      dx2y2   :     0.014116
      dxy     :     0.017613
  7 C s       :     3.042393  s :     3.042393
      pz      :     0.832209  p :     2.739186
      px      :     0.962961
      py      :     0.944016
      dz2     :     0.005026  d :     0.123376
      dxz     :     0.010086
      dyz     :     0.030742
      dx2y2   :     0.044230
      dxy     :     0.033292
  8 O s       :     3.687367  s :     3.687367
      pz      :     1.465158  p :     4.520656
      px      :     1.633810
      py      :     1.421688
      dz2     :     0.002075  d :     0.019339
      dxz     :     0.001410
      dyz     :     0.004646
      dx2y2   :     0.005167
      dxy     :     0.006041
  9 C s       :     3.041326  s :     3.041326
      pz      :     1.027105  p :     2.908007
      px      :     0.952072
      py      :     0.928830
      dz2     :     0.003207  d :     0.044342
      dxz     :     0.005624
      dyz     :     0.006889
      dx2y2   :     0.015312
      dxy     :     0.013309
 10 C s       :     3.218638  s :     3.218638
      pz      :     0.962985  p :     2.761469
      px      :     0.897179
      py      :     0.901305
      dz2     :     0.002571  d :     0.035784
      dxz     :     0.005937
      dyz     :     0.004005
      dx2y2   :     0.010349
      dxy     :     0.012921
 11 C s       :     3.212110  s :     3.212110
      pz      :     0.997161  p :     2.799812
      px      :     0.927113
      py      :     0.875538
      dz2     :     0.002593  d :     0.035028
      dxz     :     0.006113
      dyz     :     0.003027
      dx2y2   :     0.011582
      dxy     :     0.011714
 12 C s       :     3.037509  s :     3.037509
      pz      :     0.938666  p :     2.830601
      px      :     0.950845
      py      :     0.941089
      dz2     :     0.003010  d :     0.042758
      dxz     :     0.006123
      dyz     :     0.006949
      dx2y2   :     0.012816
      dxy     :     0.013860
 13 C s       :     3.212918  s :     3.212918
      pz      :     0.998464  p :     2.797870
      px      :     0.883056
      py      :     0.916350
      dz2     :     0.002520  d :     0.034926
      dxz     :     0.005278
      dyz     :     0.003837
      dx2y2   :     0.010668
      dxy     :     0.012623
 14 C s       :     3.230619  s :     3.230619
      pz      :     0.954149  p :     2.741573
      px      :     0.915680
      py      :     0.871743
      dz2     :     0.002620  d :     0.035660
      dxz     :     0.006664
      dyz     :     0.003185
      dx2y2   :     0.010820
      dxy     :     0.012372
 15 H s       :     0.954982  s :     0.954982
      pz      :     0.004489  p :     0.023303
      px      :     0.005383
      py      :     0.013431
 16 H s       :     0.974084  s :     0.974084
      pz      :     0.004882  p :     0.024052
      px      :     0.007777
      py      :     0.011394
 17 C s       :     3.245679  s :     3.245679
      pz      :     1.028812  p :     3.074815
      px      :     0.970859
      py      :     1.075144
      dz2     :     0.011806  d :     0.051927
      dxz     :     0.007878
      dyz     :     0.011553
      dx2y2   :     0.011552
      dxy     :     0.009138
 18 C s       :     2.979638  s :     2.979638
      pz      :     0.954813  p :     2.936485
      px      :     1.000259
      py      :     0.981412
      dz2     :     0.007783  d :     0.028085
      dxz     :     0.002861
      dyz     :     0.006036
      dx2y2   :     0.007004
      dxy     :     0.004400
 19 H s       :     0.953439  s :     0.953439
      pz      :     0.004398  p :     0.023759
      px      :     0.007004
      py      :     0.012357
 20 H s       :     0.944911  s :     0.944911
      pz      :     0.011024  p :     0.023530
      px      :     0.005864
      py      :     0.006642
 21 H s       :     0.951109  s :     0.951109
      pz      :     0.004411  p :     0.023788
      px      :     0.014366
      py      :     0.005012
 22 C s       :     2.954704  s :     2.954704
      pz      :     1.003504  p :     2.959738
      px      :     0.987496
      py      :     0.968738
      dz2     :     0.005586  d :     0.027933
      dxz     :     0.001414
      dyz     :     0.009216
      dx2y2   :     0.007091
      dxy     :     0.004627
 23 H s       :     0.944212  s :     0.944212
      pz      :     0.011579  p :     0.023639
      px      :     0.005391
      py      :     0.006669
 24 H s       :     0.943886  s :     0.943886
      pz      :     0.010971  p :     0.023626
      px      :     0.005153
      py      :     0.007502
 25 H s       :     0.948834  s :     0.948834
      pz      :     0.005210  p :     0.023600
      px      :     0.013920
      py      :     0.004469
 26 C s       :     2.980256  s :     2.980256
      pz      :     0.951036  p :     2.937971
      px      :     0.998329
      py      :     0.988606
      dz2     :     0.007588  d :     0.028163
      dxz     :     0.002698
      dyz     :     0.006647
      dx2y2   :     0.007042
      dxy     :     0.004187
 27 H s       :     0.950887  s :     0.950887
      pz      :     0.004296  p :     0.023786
      px      :     0.014399
      py      :     0.005091
 28 H s       :     0.953097  s :     0.953097
      pz      :     0.004433  p :     0.023795
      px      :     0.006934
      py      :     0.012428
 29 H s       :     0.943794  s :     0.943794
      pz      :     0.010498  p :     0.023398
      px      :     0.005465
      py      :     0.007435
 30 H s       :     0.972372  s :     0.972372
      pz      :     0.004830  p :     0.023558
      px      :     0.005373
      py      :     0.013354
 31 H s       :     0.963438  s :     0.963438
      pz      :     0.004604  p :     0.023479
      px      :     0.007751
      py      :     0.011124
 32 H s       :     0.925473  s :     0.925473
      pz      :     0.004517  p :     0.024291
      px      :     0.014723
      py      :     0.005051
 33 H s       :     0.926032  s :     0.926032
      pz      :     0.010510  p :     0.023433
      px      :     0.005656
      py      :     0.007267
 34 H s       :     0.899213  s :     0.899213
      pz      :     0.004256  p :     0.024414
      px      :     0.005510
      py      :     0.014648


                     *******************************
                     * LOEWDIN POPULATION ANALYSIS *
                     *******************************

----------------------
LOEWDIN ATOMIC CHARGES
----------------------
   0 C :   -0.075416
   1 C :    0.091726
   2 H :    0.026512
   3 H :    0.028618
   4 O :   -0.070030
   5 C :    0.033499
   6 C :   -0.024886
   7 C :    0.037840
   8 O :   -0.221444
   9 C :   -0.060737
  10 C :   -0.000198
  11 C :   -0.025931
  12 C :    0.003276
  13 C :   -0.031945
  14 C :    0.004184
  15 H :    0.039704
  16 H :    0.030344
  17 C :   -0.058399
  18 C :   -0.037642
  19 H :    0.021507
  20 H :    0.027122
  21 H :    0.023658
  22 C :   -0.046284
  23 H :    0.024624
  24 H :    0.024745
  25 H :    0.027001
  26 C :   -0.037946
  27 H :    0.023743
  28 H :    0.021459
  29 H :    0.027481
  30 H :    0.027123
  31 H :    0.034981
  32 H :    0.038603
  33 H :    0.033045
  34 H :    0.040062

-------------------------------
LOEWDIN REDUCED ORBITAL CHARGES
-------------------------------
  0 C s       :     2.835262  s :     2.835262
      pz      :     1.033256  p :     3.170102
      px      :     1.061063
      py      :     1.075783
      dz2     :     0.018302  d :     0.070052
      dxz     :     0.010228
      dyz     :     0.016105
      dx2y2   :     0.019623
      dxy     :     0.005794
  1 C s       :     2.847017  s :     2.847017
      pz      :     1.070603  p :     2.926036
      px      :     0.770024
      py      :     1.085409
      dz2     :     0.025999  d :     0.135222
      dxz     :     0.029232
      dyz     :     0.018133
      dx2y2   :     0.042765
      dxy     :     0.019093
  2 H s       :     0.907784  s :     0.907784
      pz      :     0.032824  p :     0.065703
      px      :     0.010960
      py      :     0.021919
  3 H s       :     0.907295  s :     0.907295
      pz      :     0.013791  p :     0.064087
      px      :     0.009474
      py      :     0.040822
  4 O s       :     3.426213  s :     3.426213
      pz      :     1.729389  p :     4.609044
      px      :     1.348711
      py      :     1.530944
      dz2     :     0.004137  d :     0.034773
      dxz     :     0.003374
      dyz     :     0.003605
      dx2y2   :     0.014093
      dxy     :     0.009564
  5 C s       :     2.818514  s :     2.818514
      pz      :     0.862722  p :     2.936864
      px      :     1.095259
      py      :     0.978883
      dz2     :     0.017795  d :     0.211123
      dxz     :     0.019562
      dyz     :     0.039813
      dx2y2   :     0.069409
      dxy     :     0.064544
  6 C s       :     2.842151  s :     2.842151
      pz      :     0.939633  p :     3.054232
      px      :     1.021303
      py      :     1.093296
      dz2     :     0.011161  d :     0.128503
      dxz     :     0.027298
      dyz     :     0.002630
      dx2y2   :     0.041098
      dxy     :     0.046316
  7 C s       :     2.800243  s :     2.800243
      pz      :     0.827509  p :     2.877783
      px      :     1.035630
      py      :     1.014644
      dz2     :     0.016557  d :     0.284135
      dxz     :     0.018892
      dyz     :     0.056154
      dx2y2   :     0.107762
      dxy     :     0.084769
  8 O s       :     3.536298  s :     3.536298
      pz      :     1.462833  p :     4.652307
      px      :     1.669420
      py      :     1.520053
      dz2     :     0.004482  d :     0.032839
      dxz     :     0.001686
      dyz     :     0.005547
      dx2y2   :     0.009174
      dxy     :     0.011951
  9 C s       :     2.832277  s :     2.832277
      pz      :     0.999968  p :     3.111748
      px      :     1.028544
      py      :     1.083236
      dz2     :     0.007975  d :     0.116713
      dxz     :     0.011633
      dyz     :     0.014167
      dx2y2   :     0.043235
      dxy     :     0.039702
 10 C s       :     2.850159  s :     2.850159
      pz      :     0.951290  p :     3.056657
      px      :     1.060940
      py      :     1.044426
      dz2     :     0.006193  d :     0.093382
      dxz     :     0.011989
      dyz     :     0.007871
      dx2y2   :     0.030380
      dxy     :     0.036948
 11 C s       :     2.846868  s :     2.846868
      pz      :     0.978970  p :     3.086043
      px      :     1.062134
      py      :     1.044939
      dz2     :     0.006282  d :     0.093020
      dxz     :     0.012591
      dyz     :     0.005617
      dx2y2   :     0.034008
      dxy     :     0.034523
 12 C s       :     2.851078  s :     2.851078
      pz      :     0.916343  p :     3.036989
      px      :     1.039877
      py      :     1.080769
      dz2     :     0.007166  d :     0.108657
      dxz     :     0.011823
      dyz     :     0.014161
      dx2y2   :     0.036821
      dxy     :     0.038685
 13 C s       :     2.847448  s :     2.847448
      pz      :     0.983426  p :     3.091459
      px      :     1.058100
      py      :     1.049933
      dz2     :     0.006190  d :     0.093037
      dxz     :     0.010727
      dyz     :     0.007489
      dx2y2   :     0.031699
      dxy     :     0.036932
 14 C s       :     2.851054  s :     2.851054
      pz      :     0.944306  p :     3.051889
      px      :     1.061770
      py      :     1.045813
      dz2     :     0.006217  d :     0.092873
      dxz     :     0.013713
      dyz     :     0.005920
      dx2y2   :     0.031787
      dxy     :     0.035236
 15 H s       :     0.890712  s :     0.890712
      pz      :     0.014058  p :     0.069584
      px      :     0.016781
      py      :     0.038745
 16 H s       :     0.898475  s :     0.898475
      pz      :     0.015347  p :     0.071181
      px      :     0.022777
      py      :     0.033058
 17 C s       :     2.837135  s :     2.837135
      pz      :     1.040250  p :     3.102198
      px      :     1.019868
      py      :     1.042080
      dz2     :     0.027091  d :     0.119067
      dxz     :     0.015865
      dyz     :     0.026676
      dx2y2   :     0.027659
      dxy     :     0.021775
 18 C s       :     2.831547  s :     2.831547
      pz      :     1.027380  p :     3.132526
      px      :     1.059495
      py      :     1.045650
      dz2     :     0.020001  d :     0.073569
      dxz     :     0.007194
      dyz     :     0.017100
      dx2y2   :     0.018097
      dxy     :     0.011177
 19 H s       :     0.910953  s :     0.910953
      pz      :     0.013447  p :     0.067540
      px      :     0.018403
      py      :     0.035690
 20 H s       :     0.905922  s :     0.905922
      pz      :     0.032987  p :     0.066956
      px      :     0.015393
      py      :     0.018575
 21 H s       :     0.909401  s :     0.909401
      pz      :     0.013281  p :     0.066941
      px      :     0.039973
      py      :     0.013686
 22 C s       :     2.829651  s :     2.829651
      pz      :     1.061919  p :     3.143315
      px      :     1.052729
      py      :     1.028667
      dz2     :     0.015096  d :     0.073319
      dxz     :     0.003555
      dyz     :     0.023262
      dx2y2   :     0.018090
      dxy     :     0.013316
 23 H s       :     0.907867  s :     0.907867
      pz      :     0.032242  p :     0.067509
      px      :     0.014790
      py      :     0.020477
 24 H s       :     0.907747  s :     0.907747
      pz      :     0.030552  p :     0.067508
      px      :     0.014117
      py      :     0.022840
 25 H s       :     0.906147  s :     0.906147
      pz      :     0.013022  p :     0.066852
      px      :     0.039574
      py      :     0.014255
 26 C s       :     2.831494  s :     2.831494
      pz      :     1.024760  p :     3.132837
      px      :     1.057509
      py      :     1.050568
      dz2     :     0.019733  d :     0.073615
      dxz     :     0.006963
      dyz     :     0.018128
      dx2y2   :     0.018073
      dxy     :     0.010718
 27 H s       :     0.909311  s :     0.909311
      pz      :     0.013126  p :     0.066946
      px      :     0.040171
      py      :     0.013650
 28 H s       :     0.910966  s :     0.910966
      pz      :     0.013705  p :     0.067575
      px      :     0.018339
      py      :     0.035531
 29 H s       :     0.905603  s :     0.905603
      pz      :     0.031796  p :     0.066916
      px      :     0.014450
      py      :     0.020670
[...]
      pz      :     0.010610  p :     0.022855
      px      :     0.005046
      py      :     0.007199
 25 H s       :     0.944985  s :     0.944985
      pz      :     0.005008  p :     0.022951
      px      :     0.013833
      py      :     0.004111
 26 C s       :     3.005034  s :     3.005034
      pz      :     0.949278  p :     2.936491
      px      :     0.998250
      py      :     0.988964
      dz2     :     0.007521  d :     0.027472
      dxz     :     0.002739
      dyz     :     0.006381
      dx2y2   :     0.007049
      dxy     :     0.003781
 27 H s       :     0.946752  s :     0.946752
      pz      :     0.004067  p :     0.023081
      px      :     0.014148
      py      :     0.004866
 28 H s       :     0.948671  s :     0.948671
      pz      :     0.004220  p :     0.023093
      px      :     0.006547
      py      :     0.012326
 29 H s       :     0.939669  s :     0.939669
      pz      :     0.010324  p :     0.022706
      px      :     0.005316
      py      :     0.007067
 30 H s       :     0.964612  s :     0.964612
      pz      :     0.004673  p :     0.022892
      px      :     0.005288
      py      :     0.012931
 31 H s       :     0.956075  s :     0.956075
      pz      :     0.004462  p :     0.022822
      px      :     0.007290
      py      :     0.011070
 32 H s       :     0.922379  s :     0.922379
      pz      :     0.004512  p :     0.023575
      px      :     0.014256
      py      :     0.004806
 33 H s       :     0.922963  s :     0.922963
      pz      :     0.011978  p :     0.023057
      px      :     0.005137
      py      :     0.005942
 34 H s       :     0.888884  s :     0.888884
      pz      :     0.003961  p :     0.024025
      px      :     0.005284
      py      :     0.014780


                     *******************************
                     * LOEWDIN POPULATION ANALYSIS *
                     *******************************

----------------------
LOEWDIN ATOMIC CHARGES
----------------------
   0 C :   -0.082512
   1 C :    0.090313
   2 H :    0.025692
   3 H :    0.030049
   4 O :   -0.071136
   5 C :    0.027841
   6 C :   -0.023763
   7 C :    0.043848
   8 O :   -0.221673
   9 C :   -0.058537
  10 C :   -0.005136
  11 C :   -0.028393
  12 C :    0.002140
  13 C :   -0.033963
  14 C :    0.000419
  15 H :    0.043072
  16 H :    0.033060
  17 C :   -0.058101
  18 C :   -0.043348
  19 H :    0.023806
  20 H :    0.028791
  21 H :    0.025550
  22 C :   -0.052062
  23 H :    0.026420
  24 H :    0.026920
  25 H :    0.028538
  26 C :   -0.043965
  27 H :    0.025687
  28 H :    0.023347
  29 H :    0.029245
  30 H :    0.029686
  31 H :    0.037846
  32 H :    0.041621
  33 H :    0.035116
  34 H :    0.043581

-------------------------------
LOEWDIN REDUCED ORBITAL CHARGES
-------------------------------
  0 C s       :     2.843654  s :     2.843654
      pz      :     1.039453  p :     3.170158
      px      :     1.058123
      py      :     1.072581
      dz2     :     0.018929  d :     0.068700
      dxz     :     0.009585
      dyz     :     0.014349
      dx2y2   :     0.019460
      dxy     :     0.006378
  1 C s       :     2.850369  s :     2.850369
      pz      :     1.069717  p :     2.925420
      px      :     0.771013
      py      :     1.084690
      dz2     :     0.028561  d :     0.133898
      dxz     :     0.027434
      dyz     :     0.015455
      dx2y2   :     0.042637
      dxy     :     0.019812
  2 H s       :     0.909811  s :     0.909811
      pz      :     0.036896  p :     0.064497
      px      :     0.009684
      py      :     0.017917
  3 H s       :     0.906782  s :     0.906782
      pz      :     0.012768  p :     0.063169
      px      :     0.009540
      py      :     0.040860
  4 O s       :     3.426855  s :     3.426855
      pz      :     1.728877  p :     4.609448
      px      :     1.350462
      py      :     1.530108
      dz2     :     0.004204  d :     0.034833
      dxz     :     0.003326
      dyz     :     0.003713
      dx2y2   :     0.014003
      dxy     :     0.009587
  5 C s       :     2.815663  s :     2.815663
      pz      :     0.867007  p :     2.938835
      px      :     1.093488
      py      :     0.978340
      dz2     :     0.018097  d :     0.217661
      dxz     :     0.020770
      dyz     :     0.040597
      dx2y2   :     0.071682
      dxy     :     0.066515
  6 C s       :     2.844429  s :     2.844429
      pz      :     0.937367  p :     3.053463
      px      :     1.020345
      py      :     1.095751
      dz2     :     0.010960  d :     0.125871
      dxz     :     0.026808
      dyz     :     0.002630
      dx2y2   :     0.040674
      dxy     :     0.044800
  7 C s       :     2.802042  s :     2.802042
      pz      :     0.824761  p :     2.874788
      px      :     1.037114
      py      :     1.012912
      dz2     :     0.017358  d :     0.279322
      dxz     :     0.017542
      dyz     :     0.056923
      dx2y2   :     0.102012
      dxy     :     0.085487
  8 O s       :     3.539550  s :     3.539550
      pz      :     1.463336  p :     4.649556
      px      :     1.677649
      py      :     1.508572
      dz2     :     0.004394  d :     0.032567
      dxz     :     0.001574
      dyz     :     0.005856
      dx2y2   :     0.009398
      dxy     :     0.011345
  9 C s       :     2.838723  s :     2.838723
      pz      :     1.001217  p :     3.106675
      px      :     1.021968
      py      :     1.083490
      dz2     :     0.007825  d :     0.113139
      dxz     :     0.010815
      dyz     :     0.014021
      dx2y2   :     0.042033
      dxy     :     0.038444
 10 C s       :     2.857398  s :     2.857398
      pz      :     0.954019  p :     3.056883
      px      :     1.059574
      py      :     1.043290
      dz2     :     0.006069  d :     0.090855
      dxz     :     0.011783
      dyz     :     0.007576
      dx2y2   :     0.029877
      dxy     :     0.035549
 11 C s       :     2.855231  s :     2.855231
      pz      :     0.979771  p :     3.083158
      px      :     1.059844
      py      :     1.043542
      dz2     :     0.006090  d :     0.090004
      dxz     :     0.012108
      dyz     :     0.005557
      dx2y2   :     0.032676
      dxy     :     0.033572
 12 C s       :     2.858499  s :     2.858499
      pz      :     0.919106  p :     3.034547
      px      :     1.036887
      py      :     1.078554
      dz2     :     0.007021  d :     0.104814
      dxz     :     0.011216
      dyz     :     0.013625
      dx2y2   :     0.035465
      dxy     :     0.037487
 13 C s       :     2.855665  s :     2.855665
      pz      :     0.983859  p :     3.088276
      px      :     1.055667
      py      :     1.048751
      dz2     :     0.006030  d :     0.090022
      dxz     :     0.010512
      dyz     :     0.007134
      dx2y2   :     0.030950
      dxy     :     0.035395
 14 C s       :     2.858157  s :     2.858157
      pz      :     0.946004  p :     3.051089
      px      :     1.059787
      py      :     1.045297
      dz2     :     0.006068  d :     0.090334
      dxz     :     0.013138
      dyz     :     0.006041
      dx2y2   :     0.030869
      dxy     :     0.034219
 15 H s       :     0.889396  s :     0.889396
      pz      :     0.013447  p :     0.067532
      px      :     0.016431
      py      :     0.037654
 16 H s       :     0.897759  s :     0.897759
      pz      :     0.014645  p :     0.069181
      px      :     0.021689
      py      :     0.032847
 17 C s       :     2.842580  s :     2.842580
      pz      :     1.040515  p :     3.098772
      px      :     1.016450
      py      :     1.041806
      dz2     :     0.026666  d :     0.116750
      dxz     :     0.015663
      dyz     :     0.026044
      dx2y2   :     0.027836
      dxy     :     0.020541
 18 C s       :     2.842744  s :     2.842744
      pz      :     1.026313  p :     3.129233
      px      :     1.057608
      py      :     1.045311
      dz2     :     0.019832  d :     0.071371
      dxz     :     0.007000
      dyz     :     0.016322
      dx2y2   :     0.018126
      dxy     :     0.010091
 19 H s       :     0.910889  s :     0.910889
      pz      :     0.012541  p :     0.065305
      px      :     0.017205
      py      :     0.035559
 20 H s       :     0.906283  s :     0.906283
      pz      :     0.032748  p :     0.064926
      px      :     0.014522
      py      :     0.017656
 21 H s       :     0.909682  s :     0.909682
      pz      :     0.012348  p :     0.064768
      px      :     0.039548
      py      :     0.012872
 22 C s       :     2.840546  s :     2.840546
      pz      :     1.061347  p :     3.140123
      px      :     1.053447
      py      :     1.025328
      dz2     :     0.014434  d :     0.071394
      dxz     :     0.003422
      dyz     :     0.022589
      dx2y2   :     0.018638
      dxy     :     0.012311
 23 H s       :     0.908229  s :     0.908229
      pz      :     0.031679  p :     0.065351
      px      :     0.013934
      py      :     0.019737
 24 H s       :     0.907768  s :     0.907768
      pz      :     0.029620  p :     0.065312
      px      :     0.013688
      py      :     0.022003
 25 H s       :     0.906572  s :     0.906572
      pz      :     0.012414  p :     0.064890
      px      :     0.039407
      py      :     0.013069
 26 C s       :     2.842573  s :     2.842573
      pz      :     1.023662  p :     3.129996
      px      :     1.056569
      py      :     1.049764
      dz2     :     0.019438  d :     0.071397
      dxz     :     0.007034
      dyz     :     0.017292
      dx2y2   :     0.017994
      dxy     :     0.009639
 27 H s       :     0.909517  s :     0.909517
      pz      :     0.012256  p :     0.064796
      px      :     0.039665
      py      :     0.012875
 28 H s       :     0.911225  s :     0.911225
      pz      :     0.012849  p :     0.065428
      px      :     0.017183
      py      :     0.035396
 29 H s       :     0.905875  s :     0.905875
      pz      :     0.031336  p :     0.064880
      px      :     0.013969
      py      :     0.019575
 30 H s       :     0.902578  s :     0.902578
      pz      :     0.014318  p :     0.067736
      px      :     0.016305
      py      :     0.037113
 31 H s       :     0.894909  s :     0.894909
      pz      :     0.013698  p :     0.067245
      px      :     0.021222
      py      :     0.032325
 32 H s       :     0.892795  s :     0.892795
      pz      :     0.012533  p :     0.065585
      px      :     0.039927
      py      :     0.013125
 33 H s       :     0.899235  s :     0.899235
      pz      :     0.034747  p :     0.065649
      px      :     0.013951
      py      :     0.016950
 34 H s       :     0.887914  s :     0.887914
      pz      :     0.011933  p :     0.068505
      px      :     0.014379
      py      :     0.042192


                      *****************************
                      * MAYER POPULATION ANALYSIS *
                      *****************************

  NA   - Mulliken gross atomic population
  ZA   - Total nuclear charge
  QA   - Mulliken gross atomic charge
  VA   - Mayer's total valence
  BVA  - Mayer's bonded valence
  FA   - Mayer's free valence

  ATOM       NA         ZA         QA         VA         BVA        FA
  0 C      6.1302     6.0000    -0.1302     3.9925     3.9925     0.0000
  1 C      5.8476     6.0000     0.1524     3.9509     3.9509    -0.0000
  2 H      0.9495     1.0000     0.0505     0.9790     0.9790     0.0000
  3 H      0.9487     1.0000     0.0513     0.9829     0.9829     0.0000
  4 O      8.2932     8.0000    -0.2932     2.2289     2.2289    -0.0000
  5 C      5.9560     6.0000     0.0440     3.7586     3.7586    -0.0000
  6 C      6.0101     6.0000    -0.0101     3.5214     3.5214     0.0000
  7 C      5.8957     6.0000     0.1043     4.2026     4.2026    -0.0000
  8 O      8.2313     8.0000    -0.2313     2.3212     2.3212     0.0000
  9 C      5.9971     6.0000     0.0029     3.7540     3.7540     0.0000
 10 C      6.0193     6.0000    -0.0193     3.8821     3.8821    -0.0000
 11 C      6.0532     6.0000    -0.0532     3.8896     3.8896    -0.0000
 12 C      5.9222     6.0000     0.0778     3.7197     3.7197    -0.0000
 13 C      6.0507     6.0000    -0.0507     3.9217     3.9217     0.0000
 14 C      6.0146     6.0000    -0.0146     3.8484     3.8484     0.0000
 15 H      0.9683     1.0000     0.0317     0.9901     0.9901    -0.0000
 16 H      0.9893     1.0000     0.0107     1.0004     1.0004    -0.0000
 17 C      6.3488     6.0000    -0.3488     4.1196     4.1196    -0.0000
 18 C      5.9650     6.0000     0.0350     3.8940     3.8940    -0.0000
 19 H      0.9717     1.0000     0.0283     0.9995     0.9995    -0.0000
 20 H      0.9638     1.0000     0.0362     0.9940     0.9940     0.0000
 21 H      0.9697     1.0000     0.0303     0.9952     0.9952    -0.0000
 22 C      5.9669     6.0000     0.0331     3.9527     3.9527    -0.0000
 23 H      0.9626     1.0000     0.0374     0.9898     0.9898    -0.0000
 24 H      0.9624     1.0000     0.0376     0.9900     0.9900     0.0000
 25 H      0.9679     1.0000     0.0321     0.9947     0.9947     0.0000
 26 C      5.9690     6.0000     0.0310     3.8960     3.8960     0.0000
 27 H      0.9698     1.0000     0.0302     0.9955     0.9955    -0.0000
 28 H      0.9718     1.0000     0.0282     0.9991     0.9991     0.0000
 29 H      0.9624     1.0000     0.0376     0.9937     0.9937     0.0000
 30 H      0.9875     1.0000     0.0125     0.9907     0.9907    -0.0000
 31 H      0.9789     1.0000     0.0211     0.9908     0.9908    -0.0000
 32 H      0.9460     1.0000     0.0540     0.9900     0.9900    -0.0000
 33 H      0.9460     1.0000     0.0540     0.9885     0.9885     0.0000
 34 H      0.9129     1.0000     0.0871     1.0098     1.0098     0.0000

  Mayer bond orders larger than 0.100000
B(  0-C ,  1-C ) :   1.0904 B(  0-C , 32-H ) :   0.9635 B(  0-C , 33-H ) :   0.9673 
B(  0-C , 34-H ) :   0.9610 B(  1-C ,  2-H ) :   0.9624 B(  1-C ,  3-H ) :   0.9657 
B(  1-C ,  4-O ) :   0.8797 B(  4-O ,  5-C ) :   1.2067 B(  5-C ,  6-C ) :   1.3507 
B(  5-C ,  7-C ) :   1.0566 B(  6-C ,  7-C ) :   1.0184 B(  6-C ,  9-C ) :   0.9770 
B(  7-C ,  8-O ) :   2.0839 B(  9-C , 10-C ) :   1.3464 B(  9-C , 14-C ) :   1.3756 
B( 10-C , 11-C ) :   1.4298 B( 10-C , 31-H ) :   0.9963 B( 11-C , 12-C ) :   1.3586 
B( 11-C , 30-H ) :   0.9936 B( 12-C , 13-C ) :   1.4372 B( 12-C , 17-C ) :   0.9148 
B( 13-C , 14-C ) :   1.3669 B( 13-C , 16-H ) :   0.9834 B( 14-C , 15-H ) :   0.9985 
B( 17-C , 18-C ) :   1.0273 B( 17-C , 22-C ) :   1.0733 B( 17-C , 26-C ) :   1.0290 
B( 18-C , 19-H ) :   0.9683 B( 18-C , 20-H ) :   0.9697 B( 18-C , 21-H ) :   0.9711 
B( 22-C , 23-H ) :   0.9573 B( 22-C , 24-H ) :   0.9586 B( 22-C , 25-H ) :   0.9660 
B( 26-C , 27-H ) :   0.9711 B( 26-C , 28-H ) :   0.9678 B( 26-C , 29-H ) :   0.9705 


-------
TIMINGS
-------

Total SCF time: 0 days 0 hours 3 min 13 sec 

Total time                  ....     193.857 sec
Sum of individual times     ....     193.551 sec  ( 99.8%)

Fock matrix formation       ....     189.695 sec  ( 97.9%)
  XC integration            ....       7.502 sec  (  4.0% of F)
    Basis function eval.    ....       2.262 sec  ( 30.1% of XC)
    Density eval.           ....       1.556 sec  ( 20.7% of XC)
    XC-Functional eval.     ....       1.763 sec  ( 23.5% of XC)
    XC-Potential eval.      ....       1.696 sec  ( 22.6% of XC)
Diagonalization             ....       0.019 sec  (  0.0%)
Density matrix formation    ....       0.017 sec  (  0.0%)
Population analysis         ....       0.016 sec  (  0.0%)
Initial guess               ....       0.018 sec  (  0.0%)
Orbital Transformation      ....       0.000 sec  (  0.0%)
Orbital Orthonormalization  ....       0.014 sec  (  0.0%)
DIIS solution               ....       0.006 sec  (  0.0%)
SOSCF solution              ....       0.077 sec  (  0.0%)
Grid generation             ....       3.703 sec  (  1.9%)


-------------------------------------------------------------------------------
                          DFT DISPERSION CORRECTION                            
                                                                               
                              DFTD3 V3.1  Rev 1                                
                              USING zero damping                               
-------------------------------------------------------------------------------
The omegaB97X-D3 functional is recognized. Fit by Chai et al.
Active option DFTDOPT                   ...         3   

molecular C6(AA) [au] = 11887.256201 


            DFT-D V3
 parameters
 s6 scaling factor         :     1.0000 
 rs6 scaling factor        :     1.2810 
 s8 scaling factor         :     1.0000 
 rs8 scaling factor        :     1.0940 
 Damping factor alpha6     :    14.0000 
 Damping factor alpha8     :    16.0000 
 ad hoc parameters k1-k3   :    16.0000     1.3333    -4.0000 

 Edisp/kcal,au: -8.713120093096  -0.013885239226 
 E6   /kcal   :  -3.901330330 
 E8   /kcal   :  -4.811789763 
 % E8         :  55.224646416 

-------------------------   ----------------
Dispersion correction           -0.013885239
-------------------------   ----------------


-------------------------   --------------------
FINAL SINGLE POINT ENERGY      -732.092817946236
-------------------------   --------------------

                                *** OPTIMIZATION RUN DONE ***

                            ***************************************
                            *     ORCA property calculations      *
                            ***************************************

                                    ---------------------
                                    Active property flags
                                    ---------------------
   (+) Dipole Moment


------------------------------------------------------------------------------
                       ORCA ELECTRIC PROPERTIES CALCULATION
------------------------------------------------------------------------------

Dipole Moment Calculation                       ... on
Quadrupole Moment Calculation                   ... off
Polarizability Calculation                      ... off
GBWName                                         ... 010242956.gbw
Electron density file                           ... 010242956.scfp
The origin for moment calculation is the CENTER OF MASS  = (-0.005588, -0.036156  0.063631)

-------------
DIPOLE MOMENT
-------------
                                X             Y             Z
Electronic contribution:    -18.40555       4.58461      -1.49313
Nuclear contribution   :     18.92419      -5.92226       1.37087
                        -----------------------------------------
Total Dipole Moment    :      0.51864      -1.33766      -0.12227
                        -----------------------------------------
Magnitude (a.u.)       :      1.43988
Magnitude (Debye)      :      3.65989



--------------------
Rotational spectrum 
--------------------
 
Rotational constants in cm-1:     0.043974     0.005855     0.005404 
Rotational constants in MHz :  1318.308773   175.524512   161.995206 

 Dipole components along the rotational axes: 
x,y,z [a.u.] :    -0.518863    -1.342906    -0.025476 
x,y,z [Debye]:    -1.318845    -3.413396    -0.064755 

 

Timings for individual modules:

Sum of individual times         ...     3835.514 sec (=  63.925 min)
GTO integral calculation        ...       10.863 sec (=   0.181 min)   0.3 %
SCF iterations                  ...     2479.632 sec (=  41.327 min)  64.6 %
SCF Gradient evaluation         ...     1336.533 sec (=  22.276 min)  34.8 %
Geometry relaxation             ...        8.485 sec (=   0.141 min)   0.2 %
                             ****ORCA TERMINATED NORMALLY****
TOTAL RUN TIME: 0 days 1 hours 3 minutes 57 seconds 698 msec
