
                                 *****************
                                 * O   R   C   A *
                                 *****************

           --- An Ab Initio, DFT and Semiempirical electronic structure package ---

                  #######################################################
                  #                        -***-                        #
                  #          Department of theory and spectroscopy      #
                  #               Directorship: Frank Neese             #
                  #        Max Planck Institute fuer Kohlenforschung    #
                  #                Kaiser Wilhelm Platz 1               #
                  #                 D-45470 Muelheim/Ruhr               #
                  #                      Germany                        #
                  #                                                     #
                  #                  All rights reserved                #
                  #                        -***-                        #
                  #######################################################


                         Program Version 4.2.0 -  RELEASE  -


 With contributions from (in alphabetic order):
   Daniel Aravena         : Magnetic Suceptibility
   Michael Atanasov       : Ab Initio Ligand Field Theory (pilot matlab implementation)
   Alexander A. Auer      : GIAO ZORA, VPT2
   Ute Becker             : Parallelization
   Giovanni Bistoni       : ED, misc. LED, open-shell LED, HFLED
   Martin Brehm           : Molecular dynamics
   Dmytro Bykov           : SCF Hessian
   Vijay G. Chilkuri      : MRCI spin determinant printing, contributions to CSF-ICE
   Dipayan Datta          : RHF DLPNO-CCSD density
   Achintya Kumar Dutta   : EOM-CC, STEOM-CC
   Dmitry Ganyushin       : Spin-Orbit,Spin-Spin,Magnetic field MRCI
   Miquel Garcia          : C-PCM Hessian, Gaussian charge scheme
   Yang Guo               : DLPNO-NEVPT2, CIM, IAO-localization
   Andreas Hansen         : Spin unrestricted coupled pair/coupled cluster methods
   Benjamin Helmich-Paris : CASSCF linear response (MC-RPA)
   Lee Huntington         : MR-EOM, pCC
   Robert Izsak           : Overlap fitted RIJCOSX, COSX-SCS-MP3, EOM
   Christian Kollmar      : KDIIS, OOCD, Brueckner-CCSD(T), CCSD density
   Simone Kossmann        : Meta GGA functionals, TD-DFT gradient, OOMP2, MP2 Hessian
   Martin Krupicka        : AUTO-CI
   Lucas Lang             : DCDCAS
   Dagmar Lenk            : GEPOL surface, SMD
   Dimitrios Liakos       : Extrapolation schemes; Compound Job, initial MDCI parallelization
   Dimitrios Manganas     : Further ROCIS development; embedding schemes
   Dimitrios Pantazis     : SARC Basis sets
   Taras Petrenko         : DFT Hessian,TD-DFT gradient, ASA, ECA, R-Raman, ABS, FL, XAS/XES, NRVS
   Peter Pinski           : DLPNO-MP2, DLPNO-MP2 Gradient
   Christoph Reimann      : Effective Core Potentials
   Marius Retegan         : Local ZFS, SOC
   Christoph Riplinger    : Optimizer, TS searches, QM/MM, DLPNO-CCSD(T), (RO)-DLPNO pert. Triples
   Tobias Risthaus        : Range-separated hybrids, TD-DFT gradient, RPA, STAB
   Michael Roemelt        : Original ROCIS implementation
   Masaaki Saitow         : Open-shell DLPNO-CCSD energy and density
   Barbara Sandhoefer     : DKH picture change effects
   Avijit Sen             : IP-ROCIS
   Kantharuban Sivalingam : CASSCF convergence, NEVPT2, FIC-MRCI
   Bernardo de Souza      : ESD, SOC TD-DFT
   Georgi Stoychev        : AutoAux, RI-MP2 NMR
   Willem Van den Heuvel  : Paramagnetic NMR
   Boris Wezisla          : Elementary symmetry handling
   Frank Wennmohs         : Technical directorship


 We gratefully acknowledge several colleagues who have allowed us to
 interface, adapt or use parts of their codes:
   Stefan Grimme, W. Hujo, H. Kruse,             : VdW corrections, initial TS optimization,
                  C. Bannwarth                     DFT functionals, gCP, sTDA/sTD-DF
   Ed Valeev, F. Pavosevic, A. Kumar             : LibInt (2-el integral package), F12 methods
   Garnet Chan, S. Sharma, J. Yang, R. Olivares  : DMRG
   Ulf Ekstrom                                   : XCFun DFT Library
   Mihaly Kallay                                 : mrcc  (arbitrary order and MRCC methods)
   Andreas Klamt, Michael Diedenhofen            : otool_cosmo (COSMO solvation model)
   Jiri Pittner, Ondrej Demel                    : Mk-CCSD
   Frank Weinhold                                : gennbo (NPA and NBO analysis)
   Christopher J. Cramer and Donald G. Truhlar   : smd solvation model
   Lars Goerigk                                  : TD-DFT with DH, B97 family of functionals
   V. Asgeirsson, H. Jonsson                     : NEB implementation
   FAccTs GmbH                                   : IRC, NEB, NEB-TS, Multilevel, MM, QM/MM, CI optimization
   S Lehtola, MJT Oliveira, MAL Marques          : LibXC Library


 Your calculation uses the libint2 library for the computation of 2-el integrals
 For citations please refer to: http://libint.valeyev.net

 Your ORCA version has been built with support for libXC version: 4.2.3
 For citations please refer to: https://tddft.org/programs/libxc/

 This ORCA versions uses:
   CBLAS   interface :  Fast vector & matrix operations
   LAPACKE interface :  Fast linear algebra routines
   SCALAPACK package :  Parallel linear algebra routines


Your calculation utilizes the atom-pairwise dispersion correction
with the zero-damping scheme (D30)
Cite in your paper:
S.Grimme, J.Antony, S.Ehrlich and H.Krieg, J.Chem.Phys., 132, (2010), 154104 
   

XCFun DFT library Copyright 2009-2010 Ulf Ekstrom and contributors.
See http://admol.org/xcfun for more information. This is free soft-
ware; see the source code for copying conditions. There is ABSOLUTELY
NO WARRANTY; not even for MERCHANTABILITY or FITNESS FOR A PARTICULAR
PURPOSE. For details see the documentation. Scientific users of this 
library should cite U. Ekstrom, L. Visscher, R. Bast, A. J. Thorvald-
sen and K. Ruud; J.Chem.Theor.Comp. 2010, DOI: 10.1021/ct100117s
XCFun Version 0.99 
----- Orbital basis set information -----
Your calculation utilizes the basis: def2-SVP
   F. Weigend and R. Ahlrichs, Phys. Chem. Chem. Phys. 7, 3297 (2005).

================================================================================
                                        WARNINGS
                       Please study these warnings very carefully!
================================================================================


WARNING: Geometry Optimization
  ===> : Switching off AutoStart
         For restart on a previous wavefunction, please use MOREAD

INFO   : the flag for use of LIBINT has been found!

================================================================================
                                       INPUT FILE
================================================================================
NAME = 010242074.inp
|  1> # ORCA input file
|  2> # -42.93174287
|  3> ! wB97X-D3 def2-SVP Opt
|  4> * xyz 0 1
|  5>    C        3.35210         0.93580         0.71940
|  6>    C        1.96940         0.96530         0.75650
|  7>    C        1.25260         0.02060         0.02470
|  8>    C        1.98620        -0.91080        -0.71310
|  9>    N        3.30330        -0.94080        -0.74650
| 10>    C        3.97170        -0.04070        -0.04570
| 11>    H        5.05000        -0.10940        -0.10410
| 12>    H        1.48750        -1.66040        -1.31290
| 13>    C       -0.21630         0.00890         0.01740
| 14>    C       -0.97310         1.16900        -0.15090
| 15>    C       -2.35010         1.18130        -0.17930
| 16>    C       -3.05910        -0.01150        -0.02130
| 17>    C       -2.33700        -1.19380         0.15530
| 18>    C       -0.96000        -1.16220         0.16690
| 19>    F       -0.31210        -2.32880         0.35880
| 20>    H       -2.84410        -2.13620         0.28840
| 21>    N       -4.42600        -0.01260         0.02350
| 22>    H       -4.89760        -0.89330        -0.08960
| 23>    H       -4.90730         0.79690        -0.32820
| 24>    H       -2.86690         2.11690        -0.32310
| 25>    F       -0.33630         2.34560        -0.32750
| 26>    H        1.45110         1.70310         1.35140
| 27>    H        3.93520         1.65270         1.27640
| 28> *
| 29> 
| 30>                          ****END OF INPUT****
================================================================================

                       *****************************
                       * Geometry Optimization Run *
                       *****************************

Geometry optimization settings:
Update method            Update   .... BFGS
Choice of coordinates    CoordSys .... Z-matrix Internals
Initial Hessian          InHess   .... Almoef's Model

Convergence Tolerances:
Energy Change            TolE     ....  5.0000e-06 Eh
Max. Gradient            TolMAXG  ....  3.0000e-04 Eh/bohr
RMS Gradient             TolRMSG  ....  1.0000e-04 Eh/bohr
Max. Displacement        TolMAXD  ....  4.0000e-03 bohr
RMS Displacement         TolRMSD  ....  2.0000e-03 bohr
Strict Convergence                ....  False
------------------------------------------------------------------------------
                        ORCA OPTIMIZATION COORDINATE SETUP
------------------------------------------------------------------------------

The optimization will be done in new redundant internal coordinates
Making redundant internal coordinates   ...  (new redundants) done
Evaluating the initial hessian          ...  (Almloef) done
Evaluating the coordinates              ...  done
Calculating the B-matrix                .... done
Calculating the G-matrix                .... done
Diagonalizing the G-matrix              .... done
Small eigenvalue found = 1.236e-02
The first mode is                       ....   50
The number of degrees of freedom        ....   63

    -----------------------------------------------------------------
                    Redundant Internal Coordinates


    -----------------------------------------------------------------
         Definition                    Initial Value    Approx d2E/dq
    -----------------------------------------------------------------
      1. B(C   1,C   0)                  1.3835         0.639867   
      2. B(C   2,C   1)                  1.3935         0.616856   
      3. B(C   3,C   2)                  1.3964         0.610205   
      4. B(N   4,C   3)                  1.3179         0.729394   
      5. B(C   5,N   4)                  1.3221         0.718024   
      6. B(C   5,C   0)                  1.3867         0.632503   
      7. B(H   6,C   5)                  1.0821         0.370754   
      8. B(H   7,C   3)                  1.0818         0.371068   
      9. B(C   8,C   2)                  1.4690         0.467472   
     10. B(C   9,C   8)                  1.3953         0.612716   
     11. B(C  10,C   9)                  1.3773         0.654522   
     12. B(C  11,C  10)                  1.3966         0.609890   
     13. B(C  12,C  11)                  1.3966         0.609864   
     14. B(C  13,C  12)                  1.3774         0.654369   
     15. B(C  13,C   8)                  1.3953         0.612706   
     16. B(F  14,C  13)                  1.3482         0.606328   
     17. B(H  15,C  12)                  1.0784         0.375753   
     18. B(N  16,C  11)                  1.3676         0.607517   
     19. B(H  17,N  16)                  1.0054         0.440081   
     20. B(H  18,N  16)                  1.0053         0.440240   
     21. B(H  19,C  10)                  1.0785         0.375674   
     22. B(F  20,C   9)                  1.3495         0.603417   
     23. B(H  21,C   1)                  1.0802         0.373264   
     24. B(H  22,C   0)                  1.0790         0.374976   
     25. A(C   5,C   0,H  22)          120.7472         0.356544   
     26. A(C   1,C   0,H  22)          120.8031         0.357246   
     27. A(C   1,C   0,C   5)          118.4491         0.438112   
     28. A(C   2,C   1,H  21)          120.3607         0.354756   
     29. A(C   0,C   1,C   2)          119.0488         0.436138   
     30. A(C   0,C   1,H  21)          120.5877         0.356968   
     31. A(C   3,C   2,C   8)          121.1565         0.411537   
     32. A(C   1,C   2,C   3)          117.3492         0.432429   
     33. A(C   1,C   2,C   8)          121.4921         0.412329   
     34. A(C   2,C   3,N   4)          123.6149         0.442770   
     35. A(C   2,C   3,H   7)          120.8582         0.353751   
     36. A(N   4,C   3,H   7)          115.5237         0.362393   
     37. A(C   3,N   4,C   5)          118.4452         0.453021   
     38. A(C   0,C   5,N   4)          123.0920         0.444390   
     39. A(N   4,C   5,H   6)          115.5917         0.361370   
     40. A(C   0,C   5,H   6)          121.3164         0.355859   
     41. A(C   2,C   8,C   9)          122.4348         0.411837   
     42. A(C   9,C   8,C  13)          114.9390         0.432224   
     43. A(C   2,C   8,C  13)          122.6241         0.411836   
     44. A(C   8,C   9,C  10)          123.5154         0.437391   
     45. A(C   8,C   9,F  20)          118.9963         0.426330   
     46. A(C  10,C   9,F  20)          117.4699         0.431407   
     47. A(C   9,C  10,H  19)          119.3124         0.358738   
     48. A(C   9,C  10,C  11)          119.8402         0.437027   
     49. A(C  11,C  10,H  19)          120.8474         0.354460   
     50. A(C  12,C  11,N  16)          120.7936         0.428386   
     51. A(C  10,C  11,N  16)          120.7832         0.428389   
     52. A(C  10,C  11,C  12)          118.3502         0.431504   
     53. A(C  13,C  12,H  15)          119.2811         0.358737   
     54. A(C  11,C  12,H  15)          120.8150         0.354471   
     55. A(C  11,C  12,C  13)          119.9032         0.437005   
     56. A(C  12,C  13,F  14)          117.5021         0.431762   
     57. A(C   8,C  13,F  14)          119.0371         0.426697   
     58. A(C   8,C  13,C  12)          123.4487         0.437371   
     59. A(H  17,N  16,H  18)          116.1952         0.304920   
     60. A(C  11,N  16,H  18)          117.8007         0.358481   
     61. A(C  11,N  16,H  17)          117.7642         0.358459   
     62. D(C   2,C   1,C   0,H  22)   -179.8997         0.028446   
     63. D(C   2,C   1,C   0,C   5)     -0.1899         0.028446   
     64. D(H  21,C   1,C   0,H  22)     -0.5034         0.028446   
     65. D(H  21,C   1,C   0,C   5)    179.2065         0.028446   
     66. D(C   3,C   2,C   1,H  21)   -179.4595         0.026314   
     67. D(C   8,C   2,C   1,H  21)      1.0721         0.026314   
     68. D(C   8,C   2,C   1,C   0)   -179.5302         0.026314   
     69. D(C   3,C   2,C   1,C   0)     -0.0617         0.026314   
     70. D(H   7,C   3,C   2,C   8)      0.3610         0.025717   
     71. D(H   7,C   3,C   2,C   1)   -179.1093         0.025717   
     72. D(N   4,C   3,C   2,C   1)      0.2057         0.025717   
     73. D(N   4,C   3,C   2,C   8)    179.6760         0.025717   
     74. D(C   5,N   4,C   3,H   7)    179.2730         0.040169   
     75. D(C   5,N   4,C   3,C   2)     -0.0754         0.040169   
     76. D(N   4,C   5,C   0,C   1)      0.3378         0.027752   
     77. D(H   6,C   5,N   4,C   3)    179.8357         0.038802   
     78. D(C   0,C   5,N   4,C   3)     -0.2044         0.038802   
     79. D(H   6,C   5,C   0,H  22)      0.0055         0.027752   
     80. D(H   6,C   5,C   0,C   1)   -179.7045         0.027752   
     81. D(N   4,C   5,C   0,H  22)   -179.9522         0.027752   
     82. D(C  13,C   8,C   2,C   3)     45.8390         0.014882   
     83. D(C  13,C   8,C   2,C   1)   -134.7128         0.014882   
     84. D(C   9,C   8,C   2,C   3)   -133.6199         0.014882   
     85. D(C   9,C   8,C   2,C   1)     45.8283         0.014882   
     86. D(F  20,C   9,C   8,C  13)   -178.8022         0.025942   
     87. D(F  20,C   9,C   8,C   2)      0.6952         0.025942   
     88. D(C  10,C   9,C   8,C  13)     -0.4002         0.025942   
     89. D(C  10,C   9,C   8,C   2)    179.0972         0.025942   
     90. D(H  19,C  10,C   9,C   8)   -179.4029         0.029857   
     91. D(C  11,C  10,C   9,F  20)    179.0748         0.029857   
     92. D(C  11,C  10,C   9,C   8)      0.6502         0.029857   
     93. D(H  19,C  10,C   9,F  20)     -0.9782         0.029857   
     94. D(N  16,C  11,C  10,H  19)     -3.3782         0.025689   
     95. D(N  16,C  11,C  10,C   9)    176.5680         0.025689   
     96. D(C  12,C  11,C  10,H  19)    179.7049         0.025689   
     97. D(C  12,C  11,C  10,C   9)     -0.3490         0.025689   
     98. D(H  15,C  12,C  11,N  16)      2.6225         0.025687   
     99. D(H  15,C  12,C  11,C  10)    179.5391         0.025687   
    100. D(C  13,C  12,C  11,N  16)   -177.0720         0.025687   
    101. D(C  13,C  12,C  11,C  10)     -0.1554         0.025687   
    102. D(F  14,C  13,C  12,H  15)     -0.5720         0.029843   
    103. D(C   8,C  13,C  12,H  15)   -179.2912         0.029843   
    104. D(C   8,C  13,C  12,C  11)      0.4080         0.029843   
    105. D(F  14,C  13,C   8,C   9)   -178.8351         0.025941   
    106. D(F  14,C  13,C   8,C   2)      1.6686         0.025941   
    107. D(F  14,C  13,C  12,C  11)    179.1272         0.029843   
    108. D(C  12,C  13,C   8,C   9)     -0.1345         0.025941   
    109. D(C  12,C  13,C   8,C   2)   -179.6308         0.025941   
    110. D(H  18,N  16,C  11,C  12)   -165.2101         0.029794   
    111. D(H  18,N  16,C  11,C  10)     17.9486         0.029794   
    112. D(H  17,N  16,C  11,C  12)    -17.9083         0.029794   
    113. D(H  17,N  16,C  11,C  10)    165.2504         0.029794   
    -----------------------------------------------------------------

Number of atoms                         .... 23
Number of degrees of freedom            .... 113

         *************************************************************
         *                GEOMETRY OPTIMIZATION CYCLE   1            *
         *************************************************************
---------------------------------
CARTESIAN COORDINATES (ANGSTROEM)
---------------------------------
  C      3.352100    0.935800    0.719400
  C      1.969400    0.965300    0.756500
  C      1.252600    0.020600    0.024700
  C      1.986200   -0.910800   -0.713100
  N      3.303300   -0.940800   -0.746500
  C      3.971700   -0.040700   -0.045700
  H      5.050000   -0.109400   -0.104100
  H      1.487500   -1.660400   -1.312900
  C     -0.216300    0.008900    0.017400
  C     -0.973100    1.169000   -0.150900
  C     -2.350100    1.181300   -0.179300
  C     -3.059100   -0.011500   -0.021300
  C     -2.337000   -1.193800    0.155300
  C     -0.960000   -1.162200    0.166900
  F     -0.312100   -2.328800    0.358800
  H     -2.844100   -2.136200    0.288400
  N     -4.426000   -0.012600    0.023500
  H     -4.897600   -0.893300   -0.089600
  H     -4.907300    0.796900   -0.328200
  H     -2.866900    2.116900   -0.323100
  F     -0.336300    2.345600   -0.327500
  H      1.451100    1.703100    1.351400
  H      3.935200    1.652700    1.276400

----------------------------
CARTESIAN COORDINATES (A.U.)
----------------------------
  NO LB      ZA    FRAG     MASS         X           Y           Z
   0 C     6.0000    0    12.011    6.334551    1.768406    1.359469
   1 C     6.0000    0    12.011    3.721627    1.824153    1.429578
   2 C     6.0000    0    12.011    2.367071    0.038928    0.046676
   3 C     6.0000    0    12.011    3.753374   -1.721163   -1.347564
   4 N     7.0000    0    14.007    6.242332   -1.777854   -1.410681
   5 C     6.0000    0    12.011    7.505425   -0.076912   -0.086360
   6 H     1.0000    0     1.008    9.543117   -0.206736   -0.196720
   7 H     1.0000    0     1.008    2.810968   -3.137701   -2.481021
   8 C     6.0000    0    12.011   -0.408748    0.016819    0.032881
   9 C     6.0000    0    12.011   -1.838893    2.209090   -0.285160
  10 C     6.0000    0    12.011   -4.441045    2.232333   -0.338828
  11 C     6.0000    0    12.011   -5.780861   -0.021732   -0.040251
  12 C     6.0000    0    12.011   -4.416290   -2.255955    0.293474
  13 C     6.0000    0    12.011   -1.814137   -2.196240    0.315395
  14 F     9.0000    0    18.998   -0.589784   -4.400794    0.678034
  15 H     1.0000    0     1.008   -5.374570   -4.036833    0.544997
  16 N     7.0000    0    14.007   -8.363928   -0.023811    0.044409
  17 H     1.0000    0     1.008   -9.255123   -1.688092   -0.169319
  18 H     1.0000    0     1.008   -9.273453    1.505923   -0.620208
  19 H     1.0000    0     1.008   -5.417656    4.000361   -0.610571
  20 F     9.0000    0    18.998   -0.635515    4.432542   -0.618885
  21 H     1.0000    0     1.008    2.742182    3.218393    2.553776
  22 H     1.0000    0     1.008    7.436450    3.123150    2.412046

--------------------------------
INTERNAL COORDINATES (ANGSTROEM)
--------------------------------
 C      0   0   0     0.000000000000     0.00000000     0.00000000
 C      1   0   0     1.383512179202     0.00000000     0.00000000
 C      2   1   0     1.393481815454   119.04883751     0.00000000
 C      3   2   1     1.396432511796   117.34916507   359.93825056
 N      4   3   2     1.317864928587   123.61485540     0.20569430
 C      5   4   3     1.322141902369   118.44524899   359.92463007
 H      6   5   4     1.082063371527   115.59166935   179.83571446
 H      4   3   2     1.081832653417   120.85817649   180.89072741
 C      3   2   1     1.468964734090   121.49214833   180.46984807
 C      9   3   2     1.395314710021   122.43483097    45.82833248
 C     10   9   3     1.377347759282   123.51542880   179.09717367
 C     11  10   9     1.396573249064   119.84022455     0.65017170
 C     12  11  10     1.396584855997   118.35019171   359.65104953
 C     13  12  11     1.377411383719   119.90318615   359.84463291
 F     14  13  12     1.348167489595   117.50213107   179.12718618
 H     13  12  11     1.078417256909   120.81504578   179.53913626
 N     12  11  10     1.367634402902   120.78323398   176.56796997
 H     17  12  11     1.005400745971   117.76423688   165.25043379
 H     17  12  11     1.005302357502   117.80065276    17.94857755
 H     11  10   9     1.078474867579   119.31236775   180.59712645
 F     10   9   3     1.349477439604   118.99634700     0.69523131
 H      2   1   3     1.080226707687   120.58768273   179.39632489
 H      1   2   3     1.078981102708   120.80312712   180.10027235

---------------------------
INTERNAL COORDINATES (A.U.)
---------------------------
 C      0   0   0     0.000000000000     0.00000000     0.00000000
 C      1   0   0     2.614459121636     0.00000000     0.00000000
 C      2   1   0     2.633299003807   119.04883751     0.00000000
 C      3   2   1     2.638875011798   117.34916507   359.93825056
 N      4   3   2     2.490403796529   123.61485540     0.20569430
 C      5   4   3     2.498486105659   118.44524899   359.92463007
 H      6   5   4     2.044803431733   115.59166935   179.83571446
 H      4   3   2     2.044367437692   120.85817649   180.89072741
 C      3   2   1     2.775941047818   121.49214833   180.46984807
 C      9   3   2     2.636762672571   122.43483097    45.82833248
 C     10   9   3     2.602810056214   123.51542880   179.09717367
 C     11  10   9     2.639140966691   119.84022455     0.65017170
 C     12  11  10     2.639162900616   118.35019171   359.65104953
 C     13  12  11     2.602930288975   119.90318615   359.84463291
 F     14  13  12     2.547667337990   117.50213107   179.12718618
 H     13  12  11     2.037913273653   120.81504578   179.53913626
 N     12  11  10     2.584454472813   120.78323398   176.56796997
 H     17  12  11     1.899932064726   117.76423688   165.25043379
 H     17  12  11     1.899746137465   117.80065276    17.94857755
 H     11  10   9     2.038022142042   119.31236775   180.59712645
 F     10   9   3     2.550142784757   118.99634700     0.69523131
 H      2   1   3     2.041332640076   120.58768273   179.39632489
 H      1   2   3     2.038978787794   120.80312712   180.10027235

---------------------
BASIS SET INFORMATION
---------------------
There are 4 groups of distinct atoms

 Group   1 Type C   : 7s4p1d contracted to 3s2p1d pattern {511/31/1}
 Group   2 Type N   : 7s4p1d contracted to 3s2p1d pattern {511/31/1}
 Group   3 Type H   : 4s1p contracted to 2s1p pattern {31/1}
 Group   4 Type F   : 7s4p1d contracted to 3s2p1d pattern {511/31/1}

Atom   0C    basis set group =>   1
Atom   1C    basis set group =>   1
Atom   2C    basis set group =>   1
Atom   3C    basis set group =>   1
Atom   4N    basis set group =>   2
Atom   5C    basis set group =>   1
Atom   6H    basis set group =>   3
Atom   7H    basis set group =>   3
Atom   8C    basis set group =>   1
Atom   9C    basis set group =>   1
Atom  10C    basis set group =>   1
Atom  11C    basis set group =>   1
Atom  12C    basis set group =>   1
Atom  13C    basis set group =>   1
Atom  14F    basis set group =>   4
Atom  15H    basis set group =>   3
Atom  16N    basis set group =>   2
Atom  17H    basis set group =>   3
Atom  18H    basis set group =>   3
Atom  19H    basis set group =>   3
Atom  20F    basis set group =>   4
Atom  21H    basis set group =>   3
Atom  22H    basis set group =>   3
------------------------------------------------------------------------------
                           ORCA GTO INTEGRAL CALCULATION
------------------------------------------------------------------------------

                         BASIS SET STATISTICS AND STARTUP INFO

 # of primitive gaussian shells          ...  220
 # of primitive gaussian functions       ...  416
 # of contracted shells                  ...  114
 # of contracted basis functions         ...  250
 Highest angular momentum                ...    2
 Maximum contraction depth               ...    5
 Integral package used                   ... LIBINT
 Integral threshhold            Thresh   ...  2.500e-11
 Primitive cut-off              TCut     ...  2.500e-12


------------------------------ INTEGRAL EVALUATION ----------------------------


 * One electron integrals 
 Pre-screening matrix                    ... done
 Shell pair data                         ... done (   0.002 sec)

-------------------------------------------------------------------------------
                                 ORCA SCF
-------------------------------------------------------------------------------

------------
SCF SETTINGS
------------
Hamiltonian:
 Density Functional     Method          .... DFT(GTOs)
 Exchange Functional    Exchange        .... WB97X-D3
 Correlation Functional Correlation     .... WB97X-D3
 Gradients option       PostSCFGGA      .... off
 Hybrid DFT is turned on
   Fraction HF Exchange ScalHFX         ....  0.195728
   Scaling of DF-GGA-X  ScalDFX         ....  0.000000
   Scaling of DF-GGA-C  ScalDFC         ....  1.000000
   Scaling of DF-LDA-C  ScalLDAC        ....  1.000000
   Perturbative correction              ....  0.000000
   Density functional embedding theory  .... OFF
 Long-range corrected/Screened/Range-Separated Hybrid DFT is turned on
   Amount of maximum screened exact exchange              ....  0.804272
   Range separation parameter mu (erf(mu*r12)/r12)        ....  0.250000


General Settings:
 Integral files         IntName         .... 010242074
 Hartree-Fock type      HFTyp           .... RHF
 Total Charge           Charge          ....    0
 Multiplicity           Mult            ....    1
 Number of Electrons    NEL             ....  106
 Basis Dimension        Dim             ....  250
 Nuclear Repulsion      ENuc            ....    938.3092928859 Eh

Convergence Acceleration:
 DIIS                   CNVDIIS         .... on
   Start iteration      DIISMaxIt       ....    12
   Startup error        DIISStart       ....  0.200000
   # of expansion vecs  DIISMaxEq       ....     5
   Bias factor          DIISBfac        ....   1.050
   Max. coefficient     DIISMaxC        ....  10.000
 Newton-Raphson         CNVNR           .... off
 SOSCF                  CNVSOSCF        .... on
   Start iteration      SOSCFMaxIt      ....   150
   Startup grad/error   SOSCFStart      ....  0.003300
 Level Shifting         CNVShift        .... on
   Level shift para.    LevelShift      ....    0.2500
   Turn off err/grad.   ShiftErr        ....    0.0010
 Zerner damping         CNVZerner       .... off
 Static damping         CNVDamp         .... on
   Fraction old density DampFac         ....    0.7000
   Max. Damping (<1)    DampMax         ....    0.9800
   Min. Damping (>=0)   DampMin         ....    0.0000
   Turn off err/grad.   DampErr         ....    0.1000
 Fernandez-Rico         CNVRico         .... off

SCF Procedure:
 Maximum # iterations   MaxIter         ....   125
 SCF integral mode      SCFMode         .... Direct
   Integral package                     .... LIBINT
 Reset frequency        DirectResetFreq ....    20
 Integral Threshold     Thresh          ....  2.500e-11 Eh
 Primitive CutOff       TCut            ....  2.500e-12 Eh

Convergence Tolerance:
 Convergence Check Mode ConvCheckMode   .... Total+1el-Energy
 Convergence forced     ConvForced      .... 0
 Energy Change          TolE            ....  1.000e-08 Eh
 1-El. energy change                    ....  1.000e-05 Eh
 Orbital Gradient       TolG            ....  1.000e-05
 Orbital Rotation angle TolX            ....  1.000e-05
 DIIS Error             TolErr          ....  5.000e-07


Diagonalization of the overlap matrix:
Smallest eigenvalue                        ... 2.028e-04
Time for diagonalization                   ...    0.460 sec
Threshold for overlap eigenvalues          ... 1.000e-08
Number of eigenvalues below threshold      ... 0
Time for construction of square roots      ...    0.004 sec
Total time needed                          ...    0.464 sec

-------------------
DFT GRID GENERATION
-------------------

General Integration Accuracy     IntAcc      ...  4.340
Radial Grid Type                 RadialGrid  ... Gauss-Chebyshev
Angular Grid (max. acc.)         AngularGrid ... Lebedev-110
Angular grid pruning method      GridPruning ... 3 (G Style)
Weight generation scheme         WeightScheme... Becke
Basis function cutoff            BFCut       ...    1.0000e-11
Integration weight cutoff        WCut        ...    1.0000e-14
Grids for H and He will be reduced by one unit

# of grid points (after initial pruning)     ...  31452 (   0.0 sec)
# of grid points (after weights+screening)   ...  28726 (   0.1 sec)
nearest neighbour list constructed           ...    0.0 sec
Grid point re-assignment to atoms done       ...    0.0 sec
Grid point division into batches done        ...    0.0 sec
Reduced shell lists constructed in    0.3 sec

Total number of grid points                  ...    28726
Total number of batches                      ...      460
Average number of points per batch           ...       62
Average number of grid points per atom       ...     1249
Average number of shells per batch           ...    65.70 (57.63%)
Average number of basis functions per batch  ...   140.53 (56.21%)
Average number of large shells per batch     ...    47.42 (72.19%)
Average number of large basis fcns per batch ...   101.31 (72.09%)
Maximum spatial batch extension              ...  18.95, 21.74, 22.44 au
Average spatial batch extension              ...   3.16,  3.69,  4.02 au

Time for grid setup =    0.370 sec

------------------------------
INITIAL GUESS: MODEL POTENTIAL
------------------------------
Loading Hartree-Fock densities                     ... done
Calculating cut-offs                               ... done
Setting up the integral package                    ... done
Initializing the effective Hamiltonian             ... done
Starting the Coulomb interaction                   ... done (   0.3 sec)
Reading the grid                                   ... done
Mapping shells                                     ... done
Starting the XC term evaluation                    ... done (   0.4 sec)
  promolecular density results
     # of electrons  =    106.008741870
     EX              =    -91.765619097
     EC              =     -3.590168535
     EX+EC           =    -95.355787632
Transforming the Hamiltonian                       ... done (   0.0 sec)
Diagonalizing the Hamiltonian                      ... done (   0.0 sec)
Back transforming the eigenvectors                 ... done (   0.0 sec)
Now organizing SCF variables                       ... done
                      ------------------
                      INITIAL GUESS DONE (   1.1 sec)
                      ------------------
--------------
SCF ITERATIONS
--------------
ITER       Energy         Delta-E        Max-DP      RMS-DP      [F,P]     Damp
               ***  Starting incremental Fock matrix formation  ***
  0   -732.1719936147   0.000000000000 0.06688708  0.00168827  0.2083434 0.7000
  1   -732.2731610471  -0.101167432385 0.04111733  0.00125706  0.1162735 0.7000
                               ***Turning on DIIS***
  2   -732.3265271620  -0.053366114901 0.07347971  0.00265485  0.0553119 0.0000
  3   -732.4160180026  -0.089490840560 0.03303340  0.00068964  0.0468718 0.0000
  4   -732.4275362126  -0.011518210049 0.00559821  0.00016868  0.0045338 0.0000
                      *** Initiating the SOSCF procedure ***
                           *** Shutting down DIIS ***
                      *** Re-Reading the Fockian *** 
                      *** Removing any level shift *** 
ITER      Energy       Delta-E        Grad      Rot      Max-DP    RMS-DP
  5   -732.42789399  -0.0003577753  0.001965  0.001965  0.002291  0.000071
               *** Restarting incremental Fock matrix formation ***
  6   -732.42796351  -0.0000695228  0.001259  0.003748  0.001348  0.000048
  7   -732.42798998  -0.0000264725  0.000477  0.003397  0.001333  0.000048
  8   -732.42799498  -0.0000049972  0.000254  0.000555  0.000495  0.000015
  9   -732.42799732  -0.0000023382  0.000065  0.000147  0.000110  0.000004
 10   -732.42799737  -0.0000000520  0.000066  0.000103  0.000078  0.000002
 11   -732.42799741  -0.0000000434  0.000008  0.000033  0.000029  0.000001
 12   -732.42799741  -0.0000000001  0.000003  0.000008  0.000011  0.000000
                  ***Gradient check signals convergence***
              ***Rediagonalizing the Fockian in SOSCF/NRSCF***

               *****************************************************
               *                     SUCCESS                       *
               *           SCF CONVERGED AFTER  13 CYCLES          *
               *****************************************************

Setting up the final grid:

General Integration Accuracy     IntAcc      ...  4.670
Radial Grid Type                 RadialGrid  ... Gauss-Chebyshev
Angular Grid (max. acc.)         AngularGrid ... Lebedev-302
Angular grid pruning method      GridPruning ... 3 (G Style)
Weight generation scheme         WeightScheme... Becke
Basis function cutoff            BFCut       ...    1.0000e-11
Integration weight cutoff        WCut        ...    1.0000e-14
Grids for H and He will be reduced by one unit

# of grid points (after initial pruning)     ... 120452 (   0.0 sec)
# of grid points (after weights+screening)   ... 108153 (   0.4 sec)
nearest neighbour list constructed           ...    0.0 sec
Grid point re-assignment to atoms done       ...    0.0 sec
Grid point division into batches done        ...    0.4 sec
Reduced shell lists constructed in    1.1 sec

Total number of grid points                  ...   108153
Total number of batches                      ...     1702
Average number of points per batch           ...       63
Average number of grid points per atom       ...     4702
Average number of shells per batch           ...    59.67 (52.34%)
Average number of basis functions per batch  ...   126.86 (50.74%)
Average number of large shells per batch     ...    42.41 (71.08%)
Average number of large basis fcns per batch ...    89.93 (70.89%)
Maximum spatial batch extension              ...  19.74, 20.51, 21.79 au
Average spatial batch extension              ...   2.24,  2.40,  2.51 au

Final grid set up in    1.6 sec
Final integration                            ... done (   1.8 sec)
Change in XC energy                          ...     0.003410045
Integrated number of electrons               ...   105.999868294
Previous integrated no of electrons          ...   106.004625669

----------------
TOTAL SCF ENERGY
----------------

Total Energy       :         -732.42458737 Eh          -19930.28626 eV

Components:
Nuclear Repulsion  :          938.30929289 Eh           25532.69392 eV
Electronic Energy  :        -1670.73388026 Eh          -45462.98018 eV
One Electron Energy:        -2861.81925638 Eh          -77874.06101 eV
Two Electron Energy:         1191.08537613 Eh           32411.08083 eV

Virial components:
Potential Energy   :        -1458.38754250 Eh          -39684.74256 eV
Kinetic Energy     :          725.96295513 Eh           19754.45631 eV
Virial Ratio       :            2.00890077


DFT components:
N(Alpha)           :       52.999934146844 electrons
N(Beta)            :       52.999934146844 electrons
N(Total)           :      105.999868293689 electrons
E(XC)              :      -67.607955854925 Eh       
DFET-embed. en.    :        0.000000000000 Eh       

---------------
SCF CONVERGENCE
---------------

  Last Energy change         ...   -1.8241e-09  Tolerance :   1.0000e-08
  Last MAX-Density change    ...    2.6706e-06  Tolerance :   1.0000e-07
  Last RMS-Density change    ...    8.2786e-08  Tolerance :   5.0000e-09
  Last Orbital Gradient      ...    8.6185e-07  Tolerance :   1.0000e-05
  Last Orbital Rotation      ...    2.4217e-06  Tolerance :   1.0000e-05

             **** THE GBW FILE WAS UPDATED (010242074.gbw) ****
             **** DENSITY FILE WAS UPDATED (010242074.scfp) ****
             **** ENERGY FILE WAS UPDATED (010242074.en.tmp) ****
             **** THE GBW FILE WAS UPDATED (010242074.gbw) ****
             **** DENSITY FILE WAS UPDATED (010242074.scfp) ****
----------------
ORBITAL ENERGIES
----------------

  NO   OCC          E(Eh)            E(eV) 
   0   2.0000     -24.809092      -675.0897 
   1   2.0000     -24.807489      -675.0461 
   2   2.0000     -14.458164      -393.4266 
   3   2.0000     -14.417162      -392.3109 
   4   2.0000     -10.390544      -282.7411 
   5   2.0000     -10.390101      -282.7290 
   6   2.0000     -10.358557      -281.8707 
   7   2.0000     -10.317652      -280.7576 
   8   2.0000     -10.317062      -280.7415 
   9   2.0000     -10.308524      -280.5092 
  10   2.0000     -10.306016      -280.4409 
  11   2.0000     -10.305772      -280.4343 
  12   2.0000     -10.296403      -280.1794 
  13   2.0000     -10.296021      -280.1690 
  14   2.0000     -10.294397      -280.1248 
  15   2.0000      -1.329726       -36.1837 
  16   2.0000      -1.328393       -36.1474 
  17   2.0000      -1.057530       -28.7769 
  18   2.0000      -1.056044       -28.7364 
  19   2.0000      -0.982786       -26.7430 
  20   2.0000      -0.925045       -25.1718 
  21   2.0000      -0.888775       -24.1848 
  22   2.0000      -0.872040       -23.7294 
  23   2.0000      -0.843998       -22.9664 
  24   2.0000      -0.757024       -20.5997 
  25   2.0000      -0.752474       -20.4759 
  26   2.0000      -0.730807       -19.8863 
  27   2.0000      -0.718025       -19.5384 
  28   2.0000      -0.674834       -18.3632 
  29   2.0000      -0.665298       -18.1037 
  30   2.0000      -0.636975       -17.3330 
  31   2.0000      -0.618701       -16.8357 
  32   2.0000      -0.605594       -16.4791 
  33   2.0000      -0.595194       -16.1961 
  34   2.0000      -0.589542       -16.0423 
  35   2.0000      -0.578923       -15.7533 
  36   2.0000      -0.574833       -15.6420 
  37   2.0000      -0.571410       -15.5489 
  38   2.0000      -0.556599       -15.1458 
  39   2.0000      -0.527778       -14.3616 
  40   2.0000      -0.508969       -13.8498 
  41   2.0000      -0.502425       -13.6717 
  42   2.0000      -0.501789       -13.6544 
  43   2.0000      -0.493431       -13.4269 
  44   2.0000      -0.489624       -13.3233 
  45   2.0000      -0.478369       -13.0171 
  46   2.0000      -0.454875       -12.3778 
  47   2.0000      -0.423046       -11.5117 
  48   2.0000      -0.376254       -10.2384 
  49   2.0000      -0.353864        -9.6291 
  50   2.0000      -0.344391        -9.3714 
  51   2.0000      -0.341697        -9.2980 
  52   2.0000      -0.295585        -8.0433 
  53   0.0000       0.040756         1.1090 
  54   0.0000       0.060929         1.6580 
  55   0.0000       0.066877         1.8198 
  56   0.0000       0.096590         2.6283 
  57   0.0000       0.131643         3.5822 
  58   0.0000       0.156366         4.2549 
  59   0.0000       0.164748         4.4830 
  60   0.0000       0.175485         4.7752 
  61   0.0000       0.201604         5.4859 
  62   0.0000       0.214228         5.8294 
  63   0.0000       0.230327         6.2675 
  64   0.0000       0.232269         6.3204 
  65   0.0000       0.237111         6.4521 
  66   0.0000       0.240361         6.5405 
  67   0.0000       0.262572         7.1449 
  68   0.0000       0.283654         7.7186 
  69   0.0000       0.303950         8.2709 
  70   0.0000       0.339965         9.2509 
  71   0.0000       0.350165         9.5285 
  72   0.0000       0.359332         9.7779 
  73   0.0000       0.368146        10.0178 
  74   0.0000       0.378041        10.2870 
  75   0.0000       0.386666        10.5217 
  76   0.0000       0.400975        10.9111 
  77   0.0000       0.413773        11.2593 
  78   0.0000       0.422801        11.5050 
  79   0.0000       0.436345        11.8735 
  80   0.0000       0.452061        12.3012 
  81   0.0000       0.476321        12.9613 
  82   0.0000       0.495443        13.4817 
  83   0.0000       0.496603        13.5133 
  84   0.0000       0.532507        14.4902 
  85   0.0000       0.534063        14.5326 
  86   0.0000       0.540093        14.6967 
  87   0.0000       0.553328        15.0568 
  88   0.0000       0.555050        15.1037 
  89   0.0000       0.565783        15.3957 
  90   0.0000       0.576221        15.6798 
  91   0.0000       0.586811        15.9679 
  92   0.0000       0.599057        16.3012 
  93   0.0000       0.609388        16.5823 
  94   0.0000       0.628415        17.1000 
  95   0.0000       0.632657        17.2155 
  96   0.0000       0.641945        17.4682 
  97   0.0000       0.665836        18.1183 
  98   0.0000       0.682011        18.5585 
  99   0.0000       0.687771        18.7152 
 100   0.0000       0.694625        18.9017 
 101   0.0000       0.701638        19.0925 
 102   0.0000       0.720591        19.6083 
 103   0.0000       0.731380        19.9019 
 104   0.0000       0.736407        20.0387 
 105   0.0000       0.744959        20.2714 
 106   0.0000       0.752146        20.4669 
 107   0.0000       0.763107        20.7652 
 108   0.0000       0.765915        20.8416 
 109   0.0000       0.778141        21.1743 
 110   0.0000       0.781865        21.2756 
 111   0.0000       0.799197        21.7473 
 112   0.0000       0.817820        22.2540 
 113   0.0000       0.831758        22.6333 
 114   0.0000       0.833358        22.6768 
 115   0.0000       0.852763        23.2049 
 116   0.0000       0.855963        23.2919 
 117   0.0000       0.860619        23.4186 
 118   0.0000       0.867859        23.6156 
 119   0.0000       0.875548        23.8249 
 120   0.0000       0.881244        23.9799 
 121   0.0000       0.897692        24.4274 
 122   0.0000       0.907601        24.6971 
 123   0.0000       0.936838        25.4926 
 124   0.0000       0.956166        26.0186 
 125   0.0000       0.964804        26.2536 
 126   0.0000       0.986916        26.8554 
 127   0.0000       0.992260        27.0008 
 128   0.0000       1.015766        27.6404 
 129   0.0000       1.035020        28.1643 
 130   0.0000       1.053715        28.6730 
 131   0.0000       1.108879        30.1741 
 132   0.0000       1.122565        30.5466 
 133   0.0000       1.152779        31.3687 
 134   0.0000       1.169498        31.8237 
 135   0.0000       1.186573        32.2883 
 136   0.0000       1.248110        33.9628 
 137   0.0000       1.265392        34.4331 
 138   0.0000       1.281787        34.8792 
 139   0.0000       1.289126        35.0789 
 140   0.0000       1.301080        35.4042 
 141   0.0000       1.310671        35.6652 
 142   0.0000       1.315534        35.7975 
 143   0.0000       1.338644        36.4264 
 144   0.0000       1.359689        36.9990 
 145   0.0000       1.367834        37.2207 
 146   0.0000       1.376096        37.4455 
 147   0.0000       1.390678        37.8423 
 148   0.0000       1.403246        38.1843 
 149   0.0000       1.418656        38.6036 
 150   0.0000       1.434176        39.0259 
 151   0.0000       1.454795        39.5870 
 152   0.0000       1.472309        40.0636 
 153   0.0000       1.532942        41.7135 
 154   0.0000       1.552953        42.2580 
 155   0.0000       1.578278        42.9471 
 156   0.0000       1.583129        43.0791 
 157   0.0000       1.613748        43.9123 
 158   0.0000       1.633702        44.4553 
 159   0.0000       1.643909        44.7330 
 160   0.0000       1.675047        45.5803 
 161   0.0000       1.749264        47.5999 
 162   0.0000       1.752847        47.6974 
 163   0.0000       1.760330        47.9010 
 164   0.0000       1.771040        48.1924 
 165   0.0000       1.783138        48.5217 
 166   0.0000       1.801612        49.0244 
 167   0.0000       1.832058        49.8528 
 168   0.0000       1.849393        50.3246 
 169   0.0000       1.853857        50.4460 
 170   0.0000       1.860655        50.6310 
 171   0.0000       1.864341        50.7313 
 172   0.0000       1.876212        51.0543 
 173   0.0000       1.887241        51.3544 
 174   0.0000       1.888899        51.3996 
 175   0.0000       1.908110        51.9223 
 176   0.0000       1.923622        52.3444 
 177   0.0000       1.931119        52.5484 
 178   0.0000       1.931968        52.5715 
 179   0.0000       1.962331        53.3978 
 180   0.0000       1.985145        54.0186 
 181   0.0000       2.020145        54.9709 
 182   0.0000       2.026764        55.1511 
 183   0.0000       2.046235        55.6809 
 184   0.0000       2.054503        55.9059 
 185   0.0000       2.067936        56.2714 
 186   0.0000       2.076117        56.4940 
 187   0.0000       2.090717        56.8913 
 188   0.0000       2.111341        57.4525 
 189   0.0000       2.133354        58.0515 
 190   0.0000       2.147486        58.4361 
 191   0.0000       2.184414        59.4409 
 192   0.0000       2.197619        59.8002 
 193   0.0000       2.237372        60.8820 
 194   0.0000       2.244220        61.0683 
 195   0.0000       2.257375        61.4263 
 196   0.0000       2.272468        61.8370 
 197   0.0000       2.280436        62.0538 
 198   0.0000       2.303207        62.6735 
 199   0.0000       2.306326        62.7583 
 200   0.0000       2.353235        64.0348 
 201   0.0000       2.363339        64.3097 
 202   0.0000       2.377787        64.7029 
 203   0.0000       2.384246        64.8786 
 204   0.0000       2.403609        65.4055 
 205   0.0000       2.425041        65.9887 
 206   0.0000       2.440786        66.4172 
 207   0.0000       2.455203        66.8095 
 208   0.0000       2.475567        67.3636 
 209   0.0000       2.510215        68.3064 
 210   0.0000       2.537145        69.0392 
 211   0.0000       2.574209        70.0478 
 212   0.0000       2.627129        71.4878 
 213   0.0000       2.632774        71.6414 
 214   0.0000       2.653097        72.1944 
 215   0.0000       2.685965        73.0888 
 216   0.0000       2.721345        74.0516 
 217   0.0000       2.737422        74.4890 
 218   0.0000       2.747492        74.7631 
 219   0.0000       2.760491        75.1168 
 220   0.0000       2.814884        76.5969 
 221   0.0000       2.843088        77.3644 
 222   0.0000       2.856326        77.7246 
 223   0.0000       2.862491        77.8923 
 224   0.0000       2.863293        77.9142 
 225   0.0000       2.939667        79.9924 
 226   0.0000       2.965033        80.6826 
 227   0.0000       3.010402        81.9172 
 228   0.0000       3.045641        82.8761 
 229   0.0000       3.072370        83.6034 
 230   0.0000       3.092184        84.1426 
 231   0.0000       3.100078        84.3574 
 232   0.0000       3.158846        85.9566 
 233   0.0000       3.183966        86.6401 
 234   0.0000       3.186010        86.6957 
 235   0.0000       3.194035        86.9141 
 236   0.0000       3.197664        87.0129 
 237   0.0000       3.227910        87.8359 
 238   0.0000       3.263843        88.8137 
 239   0.0000       3.278459        89.2114 
 240   0.0000       3.391545        92.2886 
 241   0.0000       3.416186        92.9592 
 242   0.0000       3.467088        94.3443 
 243   0.0000       3.550369        96.6105 
 244   0.0000       3.553429        96.6937 
 245   0.0000       3.621866        98.5560 
 246   0.0000       3.715245       101.0970 
 247   0.0000       3.772956       102.6673 
 248   0.0000       3.914968       106.5317 
 249   0.0000       4.026858       109.5764 

                    ********************************
                    * MULLIKEN POPULATION ANALYSIS *
                    ********************************

-----------------------
MULLIKEN ATOMIC CHARGES
-----------------------
   0 C :   -0.042564
   1 C :    0.040094
   2 C :   -0.033359
   3 C :    0.039399
   4 N :   -0.128016
   5 C :    0.029715
   6 H :    0.027340
   7 H :    0.023242
   8 C :   -0.121014
   9 C :    0.266940
  10 C :   -0.120689
  11 C :    0.094016
  12 C :   -0.120326
  13 C :    0.267381
  14 F :   -0.200942
  15 H :   -0.001168
  16 N :   -0.116057
  17 H :    0.130626
  18 H :    0.130259
  19 H :   -0.001905
  20 F :   -0.204441
  21 H :    0.021486
  22 H :    0.019984
Sum of atomic charges:    0.0000000

--------------------------------
MULLIKEN REDUCED ORBITAL CHARGES
--------------------------------
  0 C s       :     3.144915  s :     3.144915
      pz      :     0.971577  p :     2.863580
      px      :     0.946374
      py      :     0.945630
      dz2     :     0.004184  d :     0.034069
      dxz     :     0.007871
      dyz     :     0.004163
      dx2y2   :     0.008200
      dxy     :     0.009651
  1 C s       :     3.164354  s :     3.164354
      pz      :     0.916310  p :     2.759546
      px      :     0.925461
      py      :     0.917774
      dz2     :     0.004416  d :     0.036006
      dxz     :     0.008651
      dyz     :     0.004382
      dx2y2   :     0.008564
      dxy     :     0.009993
  2 C s       :     3.053101  s :     3.053101
      pz      :     0.985486  p :     2.937634
      px      :     0.944736
      py      :     1.007412
      dz2     :     0.006256  d :     0.042624
      dxz     :     0.010486
      dyz     :     0.005539
      dx2y2   :     0.010820
      dxy     :     0.009523
  3 C s       :     3.169390  s :     3.169390
      pz      :     0.914397  p :     2.735501
      px      :     0.908062
      py      :     0.913042
      dz2     :     0.005769  d :     0.055709
      dxz     :     0.014930
      dyz     :     0.004147
      dx2y2   :     0.012917
      dxy     :     0.017947
  4 N s       :     3.436874  s :     3.436874
      pz      :     1.234933  p :     3.660813
      px      :     1.120441
      py      :     1.305439
      dz2     :     0.005028  d :     0.030329
      dxz     :     0.005813
      dyz     :     0.004907
      dx2y2   :     0.008208
      dxy     :     0.006373
  5 C s       :     3.132833  s :     3.132833
      pz      :     0.929416  p :     2.781367
      px      :     0.928448
      py      :     0.923504
      dz2     :     0.009502  d :     0.056085
      dxz     :     0.008371
      dyz     :     0.009743
      dx2y2   :     0.017144
      dxy     :     0.011324
  6 H s       :     0.951271  s :     0.951271
      pz      :     0.003348  p :     0.021389
      px      :     0.015160
      py      :     0.002881
  7 H s       :     0.955251  s :     0.955251
      pz      :     0.007363  p :     0.021507
      px      :     0.004366
      py      :     0.009777
  8 C s       :     3.075377  s :     3.075377
      pz      :     1.150698  p :     3.006746
      px      :     0.912920
      py      :     0.943127
      dz2     :     0.003504  d :     0.038892
      dxz     :     0.006992
      dyz     :     0.005807
      dx2y2   :     0.008998
      dxy     :     0.013592
  9 C s       :     3.035616  s :     3.035616
      pz      :     0.960740  p :     2.612336
      px      :     0.885684
      py      :     0.765912
      dz2     :     0.006464  d :     0.085108
      dxz     :     0.012519
      dyz     :     0.014567
      dx2y2   :     0.024965
      dxy     :     0.026593
 10 C s       :     3.269192  s :     3.269192
      pz      :     1.129530  p :     2.820887
      px      :     0.892550
      py      :     0.798807
      dz2     :     0.002839  d :     0.030610
      dxz     :     0.005518
      dyz     :     0.003333
      dx2y2   :     0.010213
      dxy     :     0.008708
 11 C s       :     2.958244  s :     2.958244
      pz      :     0.918755  p :     2.880893
      px      :     0.924323
      py      :     1.037814
      dz2     :     0.004755  d :     0.066847
      dxz     :     0.018419
      dyz     :     0.008233
      dx2y2   :     0.019195
      dxy     :     0.016246
 12 C s       :     3.269855  s :     3.269855
      pz      :     1.127852  p :     2.819892
      px      :     0.893651
      py      :     0.798390
      dz2     :     0.002873  d :     0.030579
      dxz     :     0.005555
      dyz     :     0.003248
      dx2y2   :     0.010225
      dxy     :     0.008678
 13 C s       :     3.035670  s :     3.035670
      pz      :     0.957873  p :     2.611543
      px      :     0.883458
      py      :     0.770213
      dz2     :     0.006462  d :     0.085405
      dxz     :     0.012586
      dyz     :     0.014694
      dx2y2   :     0.024945
      dxy     :     0.026718
 14 F s       :     3.892403  s :     3.892403
      pz      :     1.887831  p :     5.300376
      px      :     1.821432
      py      :     1.591113
      dz2     :     0.001099  d :     0.008162
      dxz     :     0.000535
      dyz     :     0.001588
      dx2y2   :     0.002140
      dxy     :     0.002800
 15 H s       :     0.977259  s :     0.977259
      pz      :     0.005799  p :     0.023909
      px      :     0.005624
      py      :     0.012485
 16 N s       :     3.291879  s :     3.291879
      pz      :     1.710242  p :     3.807759
      px      :     1.062735
      py      :     1.034782
      dz2     :     0.001550  d :     0.016420
      dxz     :     0.003252
      dyz     :     0.001691
      dx2y2   :     0.004681
      dxy     :     0.005246
 17 H s       :     0.823735  s :     0.823735
      pz      :     0.013713  p :     0.045640
      px      :     0.011216
      py      :     0.020710
 18 H s       :     0.824035  s :     0.824035
      pz      :     0.014919  p :     0.045706
      px      :     0.011383
      py      :     0.019403
 19 H s       :     0.977989  s :     0.977989
      pz      :     0.005823  p :     0.023916
      px      :     0.005736
      py      :     0.012357
 20 F s       :     3.892593  s :     3.892593
      pz      :     1.890140  p :     5.303750
      px      :     1.825830
      py      :     1.587780
      dz2     :     0.001093  d :     0.008099
      dxz     :     0.000505
      dyz     :     0.001579
      dx2y2   :     0.002166
      dxy     :     0.002755
 21 H s       :     0.954970  s :     0.954970
      pz      :     0.007469  p :     0.023544
      px      :     0.006415
      py      :     0.009661
 22 H s       :     0.956393  s :     0.956393
      pz      :     0.007429  p :     0.023622
      px      :     0.006925
      py      :     0.009268


                     *******************************
                     * LOEWDIN POPULATION ANALYSIS *
                     *******************************

----------------------
LOEWDIN ATOMIC CHARGES
----------------------
   0 C :   -0.051798
   1 C :    0.012738
   2 C :   -0.046286
   3 C :    0.027750
   4 N :   -0.080676
   5 C :    0.017157
   6 H :    0.022209
   7 H :    0.022073
   8 C :   -0.121875
   9 C :    0.118422
  10 C :   -0.113798
  11 C :    0.047509
  12 C :   -0.113113
  13 C :    0.118865
  14 F :   -0.064225
  15 H :    0.036556
  16 N :   -0.021995
  17 H :    0.077584
  18 H :    0.077307
  19 H :    0.036210
  20 F :   -0.067154
  21 H :    0.033270
  22 H :    0.033269

-------------------------------
LOEWDIN REDUCED ORBITAL CHARGES
-------------------------------
  0 C s       :     2.857892  s :     2.857892
      pz      :     1.010147  p :     3.102722
      px      :     1.064575
      py      :     1.027999
      dz2     :     0.009604  d :     0.091184
      dxz     :     0.019935
      dyz     :     0.011688
      dx2y2   :     0.023797
      dxy     :     0.026161
  1 C s       :     2.854438  s :     2.854438
      pz      :     0.971266  p :     3.039360
      px      :     1.067110
      py      :     1.000984
      dz2     :     0.009986  d :     0.093464
      dxz     :     0.021487
      dyz     :     0.011296
      dx2y2   :     0.023963
      dxy     :     0.026731
  2 C s       :     2.840329  s :     2.840329
      pz      :     1.023793  p :     3.094222
      px      :     1.020653
      py      :     1.049777
      dz2     :     0.014148  d :     0.111734
      dxz     :     0.025456
      dyz     :     0.015288
      dx2y2   :     0.029991
      dxy     :     0.026851
  3 C s       :     2.851197  s :     2.851197
      pz      :     0.969881  p :     2.984977
      px      :     1.016199
      py      :     0.998897
      dz2     :     0.013115  d :     0.136076
      dxz     :     0.034594
      dyz     :     0.010470
      dx2y2   :     0.033832
      dxy     :     0.044065
  4 N s       :     3.201030  s :     3.201030
      pz      :     1.244173  p :     3.816950
      px      :     1.243710
      py      :     1.329067
      dz2     :     0.008695  d :     0.062696
      dxz     :     0.012258
      dyz     :     0.008707
      dx2y2   :     0.018805
      dxy     :     0.014230
  5 C s       :     2.852188  s :     2.852188
      pz      :     0.967991  p :     2.994774
      px      :     1.032134
      py      :     0.994649
      dz2     :     0.019879  d :     0.135882
      dxz     :     0.019349
      dyz     :     0.026092
      dx2y2   :     0.042293
      dxy     :     0.028268
  6 H s       :     0.911106  s :     0.911106
      pz      :     0.011964  p :     0.066685
      px      :     0.043650
      py      :     0.011071
  7 H s       :     0.910546  s :     0.910546
      pz      :     0.022838  p :     0.067381
      px      :     0.015654
      py      :     0.028888
  8 C s       :     2.836909  s :     2.836909
      pz      :     1.091946  p :     3.180546
      px      :     1.035376
      py      :     1.053224
      dz2     :     0.008715  d :     0.104420
      dxz     :     0.013695
      dyz     :     0.012230
      dx2y2   :     0.029419
      dxy     :     0.040360
  9 C s       :     2.843416  s :     2.843416
      pz      :     0.961368  p :     2.845361
      px      :     1.029280
      py      :     0.854713
      dz2     :     0.013718  d :     0.192800
      dxz     :     0.025049
      dyz     :     0.028783
      dx2y2   :     0.061314
      dxy     :     0.063937
 10 C s       :     2.847659  s :     2.847659
      pz      :     1.103672  p :     3.181322
      px      :     1.041589
      py      :     1.036061
      dz2     :     0.006954  d :     0.084818
      dxz     :     0.011353
      dyz     :     0.006283
      dx2y2   :     0.031931
      dxy     :     0.028297
 11 C s       :     2.822706  s :     2.822706
      pz      :     0.912426  p :     2.973526
      px      :     0.969081
      py      :     1.092020
      dz2     :     0.010081  d :     0.156260
      dxz     :     0.037088
      dyz     :     0.017143
      dx2y2   :     0.050112
      dxy     :     0.041836
 12 C s       :     2.847750  s :     2.847750
      pz      :     1.102887  p :     3.180613
      px      :     1.041661
      py      :     1.036065
      dz2     :     0.007009  d :     0.084750
      dxz     :     0.011464
      dyz     :     0.006092
      dx2y2   :     0.031977
      dxy     :     0.028208
 13 C s       :     2.843076  s :     2.843076
      pz      :     0.958530  p :     2.844697
      px      :     1.026952
      py      :     0.859215
      dz2     :     0.013706  d :     0.193361
      dxz     :     0.025160
      dyz     :     0.029018
      dx2y2   :     0.061374
      dxy     :     0.064104
 14 F s       :     3.722599  s :     3.722599
      pz      :     1.885016  p :     5.329127
      px      :     1.824956
      py      :     1.619155
      dz2     :     0.001768  d :     0.012499
      dxz     :     0.000758
      dyz     :     0.002239
      dx2y2   :     0.003273
      dxy     :     0.004462
 15 H s       :     0.890684  s :     0.890684
      pz      :     0.018995  p :     0.072759
      px      :     0.017447
      py      :     0.036317
 16 N s       :     3.026215  s :     3.026215
      pz      :     1.650289  p :     3.952606
      px      :     1.145561
      py      :     1.156756
      dz2     :     0.002633  d :     0.043174
      dxz     :     0.005994
      dyz     :     0.003556
      dx2y2   :     0.014386
      dxy     :     0.016605
 17 H s       :     0.797348  s :     0.797348
      pz      :     0.042508  p :     0.125068
      px      :     0.027944
      py      :     0.054616
 18 H s       :     0.797571  s :     0.797571
      pz      :     0.047078  p :     0.125122
      px      :     0.028402
      py      :     0.049642
 19 H s       :     0.891042  s :     0.891042
      pz      :     0.019094  p :     0.072747
      px      :     0.017723
      py      :     0.035931
 20 F s       :     3.723101  s :     3.723101
      pz      :     1.887208  p :     5.331653
      px      :     1.828733
      py      :     1.615713
      dz2     :     0.001758  d :     0.012400
      dxz     :     0.000715
      dyz     :     0.002225
      dx2y2   :     0.003324
      dxy     :     0.004378
 21 H s       :     0.897418  s :     0.897418
      pz      :     0.022236  p :     0.069311
      px      :     0.019369
      py      :     0.027706
 22 H s       :     0.896677  s :     0.896677
      pz      :     0.022216  p :     0.070054
      px      :     0.020780
      py      :     0.027058


                      *****************************
                      * MAYER POPULATION ANALYSIS *
                      *****************************

  NA   - Mulliken gross atomic population
  ZA   - Total nuclear charge
  QA   - Mulliken gross atomic charge
  VA   - Mayer's total valence
  BVA  - Mayer's bonded valence
  FA   - Mayer's free valence

  ATOM       NA         ZA         QA         VA         BVA        FA
  0 C      6.0426     6.0000    -0.0426     3.8817     3.8817    -0.0000
  1 C      5.9599     6.0000     0.0401     3.9464     3.9464     0.0000
  2 C      6.0334     6.0000    -0.0334     3.8424     3.8424     0.0000
  3 C      5.9606     6.0000     0.0394     4.0433     4.0433     0.0000
  4 N      7.1280     7.0000    -0.1280     3.1926     3.1926    -0.0000
  5 C      5.9703     6.0000     0.0297     4.0188     4.0188     0.0000
  6 H      0.9727     1.0000     0.0273     0.9880     0.9880     0.0000
  7 H      0.9768     1.0000     0.0232     1.0046     1.0046    -0.0000
  8 C      6.1210     6.0000    -0.1210     3.6565     3.6565    -0.0000
  9 C      5.7331     6.0000     0.2669     3.9811     3.9811    -0.0000
 10 C      6.1207     6.0000    -0.1207     3.7600     3.7600     0.0000
 11 C      5.9060     6.0000     0.0940     3.9509     3.9509     0.0000
 12 C      6.1203     6.0000    -0.1203     3.7572     3.7572     0.0000
 13 C      5.7326     6.0000     0.2674     3.9871     3.9871     0.0000
 14 F      9.2009     9.0000    -0.2009     1.1680     1.1680     0.0000
 15 H      1.0012     1.0000    -0.0012     1.0079     1.0079     0.0000
 16 N      7.1161     7.0000    -0.1161     3.2046     3.2046     0.0000
 17 H      0.8694     1.0000     0.1306     0.9979     0.9979     0.0000
 18 H      0.8697     1.0000     0.1303     0.9981     0.9981     0.0000
 19 H      1.0019     1.0000    -0.0019     1.0078     1.0078    -0.0000
 20 F      9.2044     9.0000    -0.2044     1.1638     1.1638    -0.0000
 21 H      0.9785     1.0000     0.0215     0.9995     0.9995    -0.0000
 22 H      0.9800     1.0000     0.0200     0.9878     0.9878    -0.0000

  Mayer bond orders larger than 0.100000
B(  0-C ,  1-C ) :   1.4282 B(  0-C ,  5-C ) :   1.3881 B(  0-C , 22-H ) :   0.9783 
B(  1-C ,  2-C ) :   1.4234 B(  1-C , 21-H ) :   0.9882 B(  2-C ,  3-C ) :   1.3714 
B(  2-C ,  8-C ) :   0.9447 B(  3-C ,  4-N ) :   1.5566 B(  3-C ,  7-H ) :   0.9907 
B(  4-N ,  5-C ) :   1.5289 B(  5-C ,  6-H ) :   0.9838 B(  8-C ,  9-C ) :   1.3441 
B(  8-C , 13-C ) :   1.3431 B(  9-C , 10-C ) :   1.4018 B(  9-C , 20-F ) :   1.0754 
B( 10-C , 11-C ) :   1.2725 B( 10-C , 19-H ) :   1.0015 B( 11-C , 12-C ) :   1.2726 
B( 11-C , 16-N ) :   1.2427 B( 12-C , 13-C ) :   1.3998 B( 12-C , 15-H ) :   1.0017 
B( 13-C , 14-F ) :   1.0806 B( 16-N , 17-H ) :   0.9521 B( 16-N , 18-H ) :   0.9523 


-------
TIMINGS
-------

Total SCF time: 0 days 0 hours 3 min 34 sec 

Total time                  ....     214.550 sec
Sum of individual times     ....     213.878 sec  ( 99.7%)

Fock matrix formation       ....     211.100 sec  ( 98.4%)
  XC integration            ....       8.543 sec  (  4.0% of F)
    Basis function eval.    ....       2.426 sec  ( 28.4% of XC)
    Density eval.           ....       1.607 sec  ( 18.8% of XC)
    XC-Functional eval.     ....       2.081 sec  ( 24.4% of XC)
    XC-Potential eval.      ....       2.201 sec  ( 25.8% of XC)
Diagonalization             ....       0.055 sec  (  0.0%)
Density matrix formation    ....       0.017 sec  (  0.0%)
Population analysis         ....       0.008 sec  (  0.0%)
Initial guess               ....       0.697 sec  (  0.3%)
Orbital Transformation      ....       0.000 sec  (  0.0%)
Orbital Orthonormalization  ....       0.000 sec  (  0.0%)
DIIS solution               ....       0.018 sec  (  0.0%)
SOSCF solution              ....       0.047 sec  (  0.0%)
Grid generation             ....       1.936 sec  (  0.9%)


-------------------------------------------------------------------------------
                          DFT DISPERSION CORRECTION                            
                                                                               
                              DFTD3 V3.1  Rev 1                                
                              USING zero damping                               
-------------------------------------------------------------------------------
The omegaB97X-D3 functional is recognized. Fit by Chai et al.
Active option DFTDOPT                   ...         3   

molecular C6(AA) [au] = 6782.635387 


            DFT-D V3
 parameters
 s6 scaling factor         :     1.0000 
 rs6 scaling factor        :     1.2810 
 s8 scaling factor         :     1.0000 
 rs8 scaling factor        :     1.0940 
 Damping factor alpha6     :    14.0000 
 Damping factor alpha8     :    16.0000 
 ad hoc parameters k1-k3   :    16.0000     1.3333    -4.0000 

 Edisp/kcal,au: -5.234766128014  -0.008342129937 
 E6   /kcal   :  -2.310401781 
 E8   /kcal   :  -2.924364347 
 % E8         :  55.864278860 

-------------------------   ----------------
Dispersion correction           -0.008342130
-------------------------   ----------------


-------------------------   --------------------
FINAL SINGLE POINT ENERGY      -732.432929500611
-------------------------   --------------------

------------------------------------------------------------------------------
                         ORCA SCF GRADIENT CALCULATION
------------------------------------------------------------------------------

Gradient of the Kohn-Sham DFT energy:
Kohn-Sham wavefunction type      ... RKS
Hartree-Fock exchange scaling    ...    0.196
Number of operators              ...    1
Number of atoms                  ...   23
Basis set dimensions             ...  250
Integral neglect threshold       ... 2.5e-11
Integral primitive cutoff        ... 2.5e-12

Nuclear repulsion gradient       ... done
One Electron Gradient            ... done
Pre-screening matrix             ... done
Starting the two electron gradient:
Two electron gradient done
Exchange-correlation gradient    ... done
Dispersion correction            ... done

------------------
CARTESIAN GRADIENT
------------------

   1   C   :    0.000725718    0.001214012    0.001036865
   2   C   :   -0.001669110    0.003587269    0.001820423
   3   C   :   -0.000601276   -0.000799326   -0.000549040
   4   C   :    0.000334352   -0.003225611   -0.001164693
   5   N   :   -0.006393739    0.006825160    0.005002029
   6   C   :    0.000871459   -0.000871437   -0.000821002
   7   H   :   -0.010346370   -0.001264528   -0.000785394
   8   H   :    0.007046787    0.005957774    0.004270624
   9   C   :   -0.000909169    0.000313400    0.000152434
  10   C   :   -0.004710886   -0.008874416    0.003770650
  11   C   :   -0.000267027   -0.000395274    0.000061656
  12   C   :   -0.000282121   -0.000350607   -0.002741478
  13   C   :   -0.000043691    0.000442365    0.001131732
  14   C   :   -0.004887797    0.009138941   -0.002893340
  15   F   :    0.004557363   -0.010216681    0.002212719
  16   H   :    0.003219956    0.008854615   -0.001694215
  17   N   :    0.000286891   -0.000043894   -0.001263291
  18   H   :    0.003212329    0.002658599    0.000975953
  19   H   :    0.003258754   -0.002308815    0.001718450
  20   H   :    0.003314485   -0.008843409    0.001177805
  21   F   :    0.004433374    0.010198093   -0.002273506
  22   H   :    0.004336048   -0.005918295   -0.004240317
  23   H   :   -0.005486332   -0.006077934   -0.004905063

Difference to translation invariance:
           :    0.0000000000   -0.0000000000    0.0000000000

Norm of the cartesian gradient     ...    0.0353100026
RMS gradient                       ...    0.0042508248
MAX gradient                       ...    0.0103463695

-------
TIMINGS
-------

Total SCF gradient time            ...       79.153 sec

One electron gradient       ....       0.261 sec  (  0.3%)
Prescreening matrices       ....       0.147 sec  (  0.2%)
Two electron gradient       ....      72.075 sec  ( 91.1%)
XC gradient                 ....       6.521 sec  (  8.2%)
------------------------------------------------------------------------------
                         ORCA GEOMETRY RELAXATION STEP
------------------------------------------------------------------------------

Reading the OPT-File                    .... done
Getting information on internals        .... done
Copying old internal coords+grads       .... done
Making the new internal coordinates     .... (new redundants).... done
Validating the new internal coordinates .... (new redundants).... done
Calculating the B-matrix                .... done
Calculating the G,G- and P matrices     .... done
Transforming gradient to internals      .... done
Projecting the internal gradient        .... done
Number of atoms                         ....  23
Number of internal coordinates          .... 113
Current Energy                          ....  -732.432929501 Eh
Current gradient norm                   ....     0.035310003 Eh/bohr
Maximum allowed component of the step   ....  0.300
Current trust radius                    ....  0.300
Evaluating the initial hessian          ....  (Almloef) done
Projecting the Hessian                  .... done
Forming the augmented Hessian           .... done
Diagonalizing the augmented Hessian     .... done
Last element of RFO vector              ....  0.993494043
Lowest eigenvalues of augmented Hessian:
 -0.003782532  0.014901254  0.022388770  0.022651738  0.025808038
Length of the computed step             ....  0.114629869
The final length of the internal step   ....  0.114629869
Converting the step to cartesian space:
 Initial RMS(Int)=    0.0107834710
Transforming coordinates:
 Iter   0:  RMS(Cart)=    0.0263570917 RMS(Int)=    0.8352149375
 Iter   1:  RMS(Cart)=    0.0001303382 RMS(Int)=    0.5910655970
 Iter   2:  RMS(Cart)=    0.0000016437 RMS(Int)=    0.0000010334
 Iter   3:  RMS(Cart)=    0.0000000233 RMS(Int)=    0.0000000122
done
Storing new coordinates                 .... done

                                .--------------------.
          ----------------------|Geometry convergence|-------------------------
          Item                value                   Tolerance       Converged
          ---------------------------------------------------------------------
          RMS gradient        0.0040181421            0.0001000000      NO
          MAX gradient        0.0126791067            0.0003000000      NO
          RMS step            0.0107834710            0.0020000000      NO
          MAX step            0.0272013615            0.0040000000      NO
          ........................................................
          Max(Bonds)      0.0144      Max(Angles)    0.54
          Max(Dihed)        1.42      Max(Improp)    0.00
          ---------------------------------------------------------------------

The optimization has not yet converged - more geometry cycles are needed


    ---------------------------------------------------------------------------
                         Redundant Internal Coordinates
                            (Angstroem and degrees)

        Definition                    Value    dE/dq     Step     New-Value
    ----------------------------------------------------------------------------
     1. B(C   1,C   0)                1.3835 -0.007924  0.0063    1.3899   
     2. B(C   2,C   1)                1.3935 -0.006127  0.0050    1.3985   
     3. B(C   3,C   2)                1.3964 -0.006451  0.0056    1.4020   
     4. B(N   4,C   3)                1.3179 -0.012679  0.0093    1.3272   
     5. B(C   5,N   4)                1.3221 -0.010271  0.0077    1.3298   
     6. B(C   5,C   0)                1.3867 -0.006394  0.0053    1.3920   
     7. B(H   6,C   5)                1.0821 -0.010188  0.0144    1.0965   
     8. B(H   7,C   3)                1.0818 -0.009746  0.0138    1.0956   
     9. B(C   8,C   2)                1.4690 -0.011189  0.0126    1.4815   
    10. B(C   9,C   8)                1.3953 -0.004051  0.0034    1.3987   
    11. B(C  10,C   9)                1.3773 -0.006338  0.0051    1.3824   
    12. B(C  11,C  10)                1.3966 -0.007959  0.0069    1.4035   
    13. B(C  12,C  11)                1.3966 -0.007785  0.0068    1.4034   
    14. B(C  13,C  12)                1.3774 -0.006415  0.0052    1.3826   
    15. B(C  13,C   8)                1.3953 -0.004176  0.0035    1.3988   
    16. B(F  14,C  13)                1.3482  0.011346 -0.0098    1.3383   
    17. B(H  15,C  12)                1.0784 -0.009461  0.0132    1.0916   
    18. B(N  16,C  11)                1.3676 -0.006709  0.0058    1.3734   
    19. B(H  17,N  16)                1.0054 -0.003944  0.0047    1.0101   
    20. B(H  18,N  16)                1.0053 -0.004019  0.0048    1.0101   
    21. B(H  19,C  10)                1.0785 -0.009417  0.0131    1.0916   
    22. B(F  20,C   9)                1.3495  0.011281 -0.0098    1.3396   
    23. B(H  21,C   1)                1.0802 -0.008456  0.0119    1.0921   
    24. B(H  22,C   0)                1.0790 -0.009533  0.0133    1.0923   
    25. A(C   5,C   0,H  22)          120.75  0.000757   -0.09    120.65   
    26. A(C   1,C   0,H  22)          120.80 -0.000054    0.03    120.84   
    27. A(C   1,C   0,C   5)          118.45 -0.000703    0.06    118.51   
    28. A(C   2,C   1,H  21)          120.36  0.001435   -0.17    120.19   
    29. A(C   0,C   1,C   2)          119.05 -0.002240    0.24    119.29   
    30. A(C   0,C   1,H  21)          120.59  0.000804   -0.07    120.52   
    31. A(C   3,C   2,C   8)          121.16 -0.000111    0.03    121.19   
    32. A(C   1,C   2,C   3)          117.35  0.001491   -0.24    117.11   
    33. A(C   1,C   2,C   8)          121.49 -0.001382    0.21    121.70   
    34. A(C   2,C   3,N   4)          123.61 -0.000916    0.15    123.77   
    35. A(C   2,C   3,H   7)          120.86  0.003400   -0.54    120.32   
    36. A(N   4,C   3,H   7)          115.52 -0.002487    0.39    115.92   
    37. A(C   3,N   4,C   5)          118.45  0.001107   -0.07    118.38   
    38. A(C   0,C   5,N   4)          123.09  0.001262   -0.15    122.94   
    39. A(N   4,C   5,H   6)          115.59 -0.003015    0.45    116.04   
    40. A(C   0,C   5,H   6)          121.32  0.001754   -0.30    121.01   
    41. A(C   2,C   8,C   9)          122.43 -0.001879    0.26    122.70   
    42. A(C   9,C   8,C  13)          114.94  0.003462   -0.48    114.45   
    43. A(C   2,C   8,C  13)          122.62 -0.001583    0.22    122.85   
    44. A(C   8,C   9,C  10)          123.52 -0.003666    0.48    123.99   
    45. A(C   8,C   9,F  20)          119.00  0.003120   -0.40    118.60   
    46. A(C  10,C   9,F  20)          117.47  0.000530   -0.05    117.42   
    47. A(C   9,C  10,H  19)          119.31  0.000648   -0.12    119.19   
    48. A(C   9,C  10,C  11)          119.84  0.001493   -0.20    119.64   
    49. A(C  11,C  10,H  19)          120.85 -0.002141    0.32    121.17   
    50. A(C  12,C  11,N  16)          120.79 -0.000372    0.06    120.85   
    51. A(C  10,C  11,N  16)          120.78 -0.000515    0.07    120.86   
    52. A(C  10,C  11,C  12)          118.35  0.000854   -0.07    118.28   
    53. A(C  13,C  12,H  15)          119.28  0.000652   -0.13    119.15   
    54. A(C  11,C  12,H  15)          120.82 -0.002194    0.33    121.14   
    55. A(C  11,C  12,C  13)          119.90  0.001542   -0.20    119.70   
    56. A(C  12,C  13,F  14)          117.50  0.000559   -0.06    117.44   
    57. A(C   8,C  13,F  14)          119.04  0.003121   -0.40    118.63   
    58. A(C   8,C  13,C  12)          123.45 -0.003688    0.48    123.93   
    59. A(H  17,N  16,H  18)          116.20  0.002033   -0.40    115.80   
    60. A(C  11,N  16,H  18)          117.80 -0.001125    0.16    117.96   
    61. A(C  11,N  16,H  17)          117.76 -0.001164    0.17    117.93   
    62. D(C   2,C   1,C   0,H  22)   -179.90 -0.000023    0.04   -179.86   
    63. D(C   2,C   1,C   0,C   5)     -0.19  0.000003   -0.01     -0.20   
    64. D(H  21,C   1,C   0,H  22)     -0.50 -0.000138    0.26     -0.24   
    65. D(H  21,C   1,C   0,C   5)    179.21 -0.000112    0.21    179.42   
    66. D(C   3,C   2,C   1,H  21)   -179.46  0.000176   -0.30   -179.76   
    67. D(C   8,C   2,C   1,H  21)      1.07  0.000312   -0.59      0.48   
    68. D(C   8,C   2,C   1,C   0)   -179.53  0.000193   -0.37   -179.90   
[...]
      dyz     :     0.004323
      dx2y2   :     0.008276
      dxy     :     0.009631
  2 C s       :     3.057683  s :     3.057683
      pz      :     0.987346  p :     2.941885
      px      :     0.943824
      py      :     1.010716
      dz2     :     0.006331  d :     0.041886
      dxz     :     0.010537
      dyz     :     0.005491
      dx2y2   :     0.010340
      dxy     :     0.009186
  3 C s       :     3.168389  s :     3.168389
      pz      :     0.917672  p :     2.734332
      px      :     0.898403
      py      :     0.918257
      dz2     :     0.005859  d :     0.054499
      dxz     :     0.014983
      dyz     :     0.004012
      dx2y2   :     0.012438
      dxy     :     0.017206
  4 N s       :     3.451825  s :     3.451825
      pz      :     1.242811  p :     3.654410
      px      :     1.115145
      py      :     1.296455
      dz2     :     0.005078  d :     0.029631
      dxz     :     0.005703
      dyz     :     0.004865
      dx2y2   :     0.007824
      dxy     :     0.006160
  5 C s       :     3.136864  s :     3.136864
      pz      :     0.927044  p :     2.780774
      px      :     0.931793
      py      :     0.921937
      dz2     :     0.009771  d :     0.054927
      dxz     :     0.008607
      dyz     :     0.009622
      dx2y2   :     0.016167
      dxy     :     0.010760
  6 H s       :     0.943801  s :     0.943801
      pz      :     0.003129  p :     0.020937
      px      :     0.015014
      py      :     0.002794
  7 H s       :     0.948770  s :     0.948770
      pz      :     0.007360  p :     0.021139
      px      :     0.004569
      py      :     0.009211
  8 C s       :     3.077405  s :     3.077405
      pz      :     1.154140  p :     3.016809
      px      :     0.909577
      py      :     0.953092
      dz2     :     0.003510  d :     0.037995
      dxz     :     0.006783
      dyz     :     0.005589
      dx2y2   :     0.008705
      dxy     :     0.013408
  9 C s       :     3.040365  s :     3.040365
      pz      :     0.954958  p :     2.611501
      px      :     0.883501
      py      :     0.773042
      dz2     :     0.006722  d :     0.087121
      dxz     :     0.012742
      dyz     :     0.015018
      dx2y2   :     0.025411
      dxy     :     0.027228
 10 C s       :     3.263493  s :     3.263493
      pz      :     1.133358  p :     2.831323
      px      :     0.895893
      py      :     0.802072
      dz2     :     0.002838  d :     0.029922
      dxz     :     0.005359
      dyz     :     0.003296
      dx2y2   :     0.010149
      dxy     :     0.008280
 11 C s       :     2.973098  s :     2.973098
      pz      :     0.919088  p :     2.870478
      px      :     0.920850
      py      :     1.030541
      dz2     :     0.004814  d :     0.065576
      dxz     :     0.017897
      dyz     :     0.008119
      dx2y2   :     0.018838
      dxy     :     0.015909
 12 C s       :     3.263593  s :     3.263593
      pz      :     1.131752  p :     2.830505
      px      :     0.897221
      py      :     0.801531
      dz2     :     0.002867  d :     0.029879
      dxz     :     0.005404
      dyz     :     0.003219
      dx2y2   :     0.010138
      dxy     :     0.008251
 13 C s       :     3.039984  s :     3.039984
      pz      :     0.953119  p :     2.611110
      px      :     0.880158
      py      :     0.777833
      dz2     :     0.006754  d :     0.087397
      dxz     :     0.012862
      dyz     :     0.015068
      dx2y2   :     0.025347
      dxy     :     0.027366
 14 F s       :     3.887123  s :     3.887123
      pz      :     1.883537  p :     5.294098
      px      :     1.816120
      py      :     1.594440
      dz2     :     0.001134  d :     0.008512
      dxz     :     0.000588
      dyz     :     0.001664
      dx2y2   :     0.002202
      dxy     :     0.002924
 15 H s       :     0.969182  s :     0.969182
      pz      :     0.005709  p :     0.023352
      px      :     0.005260
      py      :     0.012383
 16 N s       :     3.302597  s :     3.302597
      pz      :     1.696190  p :     3.809844
      px      :     1.066667
      py      :     1.046987
      dz2     :     0.001537  d :     0.016337
      dxz     :     0.003265
      dyz     :     0.001929
      dx2y2   :     0.004617
      dxy     :     0.004990
 17 H s       :     0.822491  s :     0.822491
      pz      :     0.013473  p :     0.045257
      px      :     0.011071
      py      :     0.020713
 18 H s       :     0.822375  s :     0.822375
      pz      :     0.015097  p :     0.045324
      px      :     0.011324
      py      :     0.018902
 19 H s       :     0.969853  s :     0.969853
      pz      :     0.005679  p :     0.023338
      px      :     0.005424
      py      :     0.012235
 20 F s       :     3.887244  s :     3.887244
      pz      :     1.885717  p :     5.297462
      px      :     1.822279
      py      :     1.589466
      dz2     :     0.001128  d :     0.008449
      dxz     :     0.000548
      dyz     :     0.001668
      dx2y2   :     0.002238
      dxy     :     0.002867
 21 H s       :     0.948921  s :     0.948921
      pz      :     0.007505  p :     0.022955
      px      :     0.006174
      py      :     0.009276
 22 H s       :     0.949409  s :     0.949409
      pz      :     0.007497  p :     0.023089
      px      :     0.006787
      py      :     0.008805


                     *******************************
                     * LOEWDIN POPULATION ANALYSIS *
                     *******************************

----------------------
LOEWDIN ATOMIC CHARGES
----------------------
   0 C :   -0.055330
   1 C :    0.011284
   2 C :   -0.046762
   3 C :    0.029189
   4 N :   -0.086058
   5 C :    0.017629
   6 H :    0.025400
   7 H :    0.024861
   8 C :   -0.125362
   9 C :    0.111984
  10 C :   -0.119913
  11 C :    0.049757
  12 C :   -0.119380
  13 C :    0.112287
  14 F :   -0.053189
  15 H :    0.039524
  16 N :   -0.028974
  17 H :    0.078902
  18 H :    0.078733
  19 H :    0.039243
  20 F :   -0.056139
  21 H :    0.036204
  22 H :    0.036109

-------------------------------
LOEWDIN REDUCED ORBITAL CHARGES
-------------------------------
  0 C s       :     2.864742  s :     2.864742
      pz      :     1.013033  p :     3.101631
      px      :     1.062696
      py      :     1.025902
      dz2     :     0.009837  d :     0.088957
      dxz     :     0.020110
      dyz     :     0.011527
      dx2y2   :     0.022801
      dxy     :     0.024682
  1 C s       :     2.860914  s :     2.860914
      pz      :     0.973776  p :     3.036284
      px      :     1.065568
      py      :     0.996940
      dz2     :     0.010215  d :     0.091518
      dxz     :     0.021630
      dyz     :     0.011111
      dx2y2   :     0.023052
      dxy     :     0.025511
  2 C s       :     2.846084  s :     2.846084
      pz      :     1.026734  p :     3.091649
      px      :     1.017937
      py      :     1.046977
      dz2     :     0.014354  d :     0.109030
      dxz     :     0.025657
      dyz     :     0.015156
      dx2y2   :     0.028340
      dxy     :     0.025523
  3 C s       :     2.858500  s :     2.858500
      pz      :     0.973150  p :     2.980050
      px      :     1.011761
      py      :     0.995139
      dz2     :     0.013221  d :     0.132261
      dxz     :     0.034894
      dyz     :     0.010075
      dx2y2   :     0.032157
      dxy     :     0.041914
  4 N s       :     3.211067  s :     3.211067
      pz      :     1.255352  p :     3.814060
      px      :     1.238928
      py      :     1.319780
      dz2     :     0.008752  d :     0.060931
      dxz     :     0.012057
      dyz     :     0.008654
      dx2y2   :     0.017903
      dxy     :     0.013565
  5 C s       :     2.859569  s :     2.859569
      pz      :     0.970146  p :     2.990587
      px      :     1.030578
      py      :     0.989862
      dz2     :     0.020465  d :     0.132215
      dxz     :     0.019996
      dyz     :     0.025740
      dx2y2   :     0.039501
      dxy     :     0.026513
  6 H s       :     0.909912  s :     0.909912
      pz      :     0.011060  p :     0.064687
      px      :     0.043226
      py      :     0.010402
  7 H s       :     0.909807  s :     0.909807
      pz      :     0.022505  p :     0.065333
      px      :     0.015746
      py      :     0.027082
  8 C s       :     2.841884  s :     2.841884
      pz      :     1.096516  p :     3.181682
      px      :     1.031288
      py      :     1.053879
      dz2     :     0.008632  d :     0.101796
      dxz     :     0.013278
      dyz     :     0.011876
      dx2y2   :     0.028403
      dxy     :     0.039606
  9 C s       :     2.844960  s :     2.844960
      pz      :     0.956044  p :     2.846008
      px      :     1.030303
      py      :     0.859662
      dz2     :     0.014225  d :     0.197047
      dxz     :     0.025494
      dyz     :     0.029859
      dx2y2   :     0.062188
      dxy     :     0.065282
 10 C s       :     2.854256  s :     2.854256
      pz      :     1.109296  p :     3.183137
      px      :     1.039277
      py      :     1.034564
      dz2     :     0.006819  d :     0.082519
      dxz     :     0.010978
      dyz     :     0.006242
      dx2y2   :     0.031470
      dxy     :     0.027011
 11 C s       :     2.828295  s :     2.828295
      pz      :     0.912941  p :     2.969324
      px      :     0.967188
      py      :     1.089194
      dz2     :     0.010145  d :     0.152624
      dxz     :     0.035828
      dyz     :     0.016846
      dx2y2   :     0.048903
      dxy     :     0.040902
 12 C s       :     2.854337  s :     2.854337
      pz      :     1.108961  p :     3.182580
      px      :     1.039268
      py      :     1.034351
      dz2     :     0.006860  d :     0.082463
      dxz     :     0.011124
      dyz     :     0.006061
      dx2y2   :     0.031502
      dxy     :     0.026916
 13 C s       :     2.844713  s :     2.844713
      pz      :     0.953940  p :     2.845463
      px      :     1.026581
      py      :     0.864943
      dz2     :     0.014293  d :     0.197537
      dxz     :     0.025715
      dyz     :     0.029957
      dx2y2   :     0.062170
      dxy     :     0.065402
 14 F s       :     3.714711  s :     3.714711
      pz      :     1.880178  p :     5.325296
      px      :     1.820427
      py      :     1.624691
      dz2     :     0.001846  d :     0.013181
      dxz     :     0.000837
      dyz     :     0.002368
      dx2y2   :     0.003406
      dxy     :     0.004723
 15 H s       :     0.889810  s :     0.889810
      pz      :     0.018438  p :     0.070666
      px      :     0.016306
      py      :     0.035922
 16 N s       :     3.034612  s :     3.034612
      pz      :     1.641871  p :     3.951832
      px      :     1.148096
      py      :     1.161865
      dz2     :     0.002640  d :     0.042530
      dxz     :     0.005978
      dyz     :     0.004072
      dx2y2   :     0.014072
      dxy     :     0.015767
 17 H s       :     0.797620  s :     0.797620
      pz      :     0.041278  p :     0.123478
      px      :     0.027702
      py      :     0.054499
 18 H s       :     0.797746  s :     0.797746
      pz      :     0.047276  p :     0.123521
      px      :     0.028377
      py      :     0.047867
 19 H s       :     0.890099  s :     0.890099
      pz      :     0.018427  p :     0.070658
      px      :     0.016727
      py      :     0.035504
 20 F s       :     3.715204  s :     3.715204
      pz      :     1.882205  p :     5.327853
      px      :     1.825828
      py      :     1.619821
      dz2     :     0.001836  d :     0.013082
      dxz     :     0.000782
      dyz     :     0.002372
      dx2y2   :     0.003479
      dxy     :     0.004613
 21 H s       :     0.896610  s :     0.896610
      pz      :     0.022118  p :     0.067185
      px      :     0.018547
      py      :     0.026520
 22 H s       :     0.895934  s :     0.895934
      pz      :     0.022153  p :     0.067957
      px      :     0.020200
      py      :     0.025605


                      *****************************
                      * MAYER POPULATION ANALYSIS *
                      *****************************

  NA   - Mulliken gross atomic population
  ZA   - Total nuclear charge
  QA   - Mulliken gross atomic charge
  VA   - Mayer's total valence
  BVA  - Mayer's bonded valence
  FA   - Mayer's free valence

  ATOM       NA         ZA         QA         VA         BVA        FA
  0 C      6.0523     6.0000    -0.0523     3.8855     3.8855     0.0000
  1 C      5.9612     6.0000     0.0388     3.9460     3.9460    -0.0000
  2 C      6.0415     6.0000    -0.0415     3.8548     3.8548    -0.0000
  3 C      5.9572     6.0000     0.0428     4.0387     4.0387    -0.0000
  4 N      7.1359     7.0000    -0.1359     3.1763     3.1763    -0.0000
  5 C      5.9726     6.0000     0.0274     4.0144     4.0144    -0.0000
  6 H      0.9647     1.0000     0.0353     0.9869     0.9869    -0.0000
  7 H      0.9699     1.0000     0.0301     1.0017     1.0017     0.0000
  8 C      6.1322     6.0000    -0.1322     3.6582     3.6582     0.0000
  9 C      5.7390     6.0000     0.2610     4.0031     4.0031     0.0000
 10 C      6.1247     6.0000    -0.1247     3.7575     3.7575    -0.0000
 11 C      5.9092     6.0000     0.0908     3.9514     3.9514    -0.0000
 12 C      6.1240     6.0000    -0.1240     3.7553     3.7553     0.0000
 13 C      5.7385     6.0000     0.2615     4.0090     4.0090     0.0000
 14 F      9.1897     9.0000    -0.1897     1.1796     1.1796    -0.0000
 15 H      0.9925     1.0000     0.0075     1.0068     1.0068    -0.0000
 16 N      7.1288     7.0000    -0.1288     3.2008     3.2008    -0.0000
 17 H      0.8677     1.0000     0.1323     0.9966     0.9966    -0.0000
 18 H      0.8677     1.0000     0.1323     0.9966     0.9966    -0.0000
 19 H      0.9932     1.0000     0.0068     1.0068     1.0068    -0.0000
 20 F      9.1932     9.0000    -0.1932     1.1756     1.1756     0.0000
 21 H      0.9719     1.0000     0.0281     0.9972     0.9972     0.0000
 22 H      0.9725     1.0000     0.0275     0.9873     0.9873    -0.0000

  Mayer bond orders larger than 0.100000
B(  0-C ,  1-C ) :   1.4259 B(  0-C ,  5-C ) :   1.3935 B(  0-C , 22-H ) :   0.9749 
B(  1-C ,  2-C ) :   1.4280 B(  1-C , 21-H ) :   0.9846 B(  2-C ,  3-C ) :   1.3778 
B(  2-C ,  8-C ) :   0.9372 B(  3-C ,  4-N ) :   1.5469 B(  3-C ,  7-H ) :   0.9860 
B(  4-N ,  5-C ) :   1.5208 B(  5-C ,  6-H ) :   0.9798 B(  8-C ,  9-C ) :   1.3472 
B(  8-C , 13-C ) :   1.3468 B(  9-C , 10-C ) :   1.4027 B(  9-C , 20-F ) :   1.0860 
B( 10-C , 11-C ) :   1.2748 B( 10-C , 19-H ) :   0.9952 B( 11-C , 12-C ) :   1.2753 
B( 11-C , 16-N ) :   1.2347 B( 12-C , 13-C ) :   1.4010 B( 12-C , 15-H ) :   0.9952 
B( 13-C , 14-F ) :   1.0901 B( 16-N , 17-H ) :   0.9526 B( 16-N , 18-H ) :   0.9527 


-------
TIMINGS
-------

Total SCF time: 0 days 0 hours 1 min 23 sec 

Total time                  ....      83.960 sec
Sum of individual times     ....      83.729 sec  ( 99.7%)

Fock matrix formation       ....      81.801 sec  ( 97.4%)
  XC integration            ....       4.137 sec  (  5.1% of F)
    Basis function eval.    ....       1.224 sec  ( 29.6% of XC)
    Density eval.           ....       0.781 sec  ( 18.9% of XC)
    XC-Functional eval.     ....       1.008 sec  ( 24.4% of XC)
    XC-Potential eval.      ....       1.008 sec  ( 24.4% of XC)
Diagonalization             ....       0.009 sec  (  0.0%)
Density matrix formation    ....       0.007 sec  (  0.0%)
Population analysis         ....       0.007 sec  (  0.0%)
Initial guess               ....       0.009 sec  (  0.0%)
Orbital Transformation      ....       0.000 sec  (  0.0%)
Orbital Orthonormalization  ....       0.006 sec  (  0.0%)
DIIS solution               ....       0.002 sec  (  0.0%)
SOSCF solution              ....       0.026 sec  (  0.0%)
Grid generation             ....       1.868 sec  (  2.2%)


-------------------------------------------------------------------------------
                          DFT DISPERSION CORRECTION                            
                                                                               
                              DFTD3 V3.1  Rev 1                                
                              USING zero damping                               
-------------------------------------------------------------------------------
The omegaB97X-D3 functional is recognized. Fit by Chai et al.
Active option DFTDOPT                   ...         3   

molecular C6(AA) [au] = 6795.630006 


            DFT-D V3
 parameters
 s6 scaling factor         :     1.0000 
 rs6 scaling factor        :     1.2810 
 s8 scaling factor         :     1.0000 
 rs8 scaling factor        :     1.0940 
 Damping factor alpha6     :    14.0000 
 Damping factor alpha8     :    16.0000 
 ad hoc parameters k1-k3   :    16.0000     1.3333    -4.0000 

 Edisp/kcal,au: -5.234162610813  -0.008341168172 
 E6   /kcal   :  -2.319342142 
 E8   /kcal   :  -2.914820468 
 % E8         :  55.688381984 

-------------------------   ----------------
Dispersion correction           -0.008341168
-------------------------   ----------------


-------------------------   --------------------
FINAL SINGLE POINT ENERGY      -732.435107637075
-------------------------   --------------------

                                *** OPTIMIZATION RUN DONE ***

                            ***************************************
                            *     ORCA property calculations      *
                            ***************************************

                                    ---------------------
                                    Active property flags
                                    ---------------------
   (+) Dipole Moment


------------------------------------------------------------------------------
                       ORCA ELECTRIC PROPERTIES CALCULATION
------------------------------------------------------------------------------

Dipole Moment Calculation                       ... on
Quadrupole Moment Calculation                   ... off
Polarizability Calculation                      ... off
GBWName                                         ... 010242074.gbw
Electron density file                           ... 010242074.scfp
The origin for moment calculation is the CENTER OF MASS  = (-0.001864,  0.004526 -0.003908)

-------------
DIPOLE MOMENT
-------------
                                X             Y             Z
Electronic contribution:      0.93250      -0.80522      -0.54485
Nuclear contribution   :     -2.74729       1.30071       0.72053
                        -----------------------------------------
Total Dipole Moment    :     -1.81479       0.49549       0.17568
                        -----------------------------------------
Magnitude (a.u.)       :      1.88940
Magnitude (Debye)      :      4.80248



--------------------
Rotational spectrum 
--------------------
 
Rotational constants in cm-1:     0.045071     0.012898     0.010566 
Rotational constants in MHz :  1351.182387   386.685042   316.751488 

 Dipole components along the rotational axes: 
x,y,z [a.u.] :    -1.815419     0.492074     0.178791 
x,y,z [Debye]:    -4.614427     1.250751     0.454451 

 

Timings for individual modules:

Sum of individual times         ...     1353.131 sec (=  22.552 min)
GTO integral calculation        ...        9.476 sec (=   0.158 min)   0.7 %
SCF iterations                  ...      871.827 sec (=  14.530 min)  64.4 %
SCF Gradient evaluation         ...      464.517 sec (=   7.742 min)  34.3 %
Geometry relaxation             ...        7.311 sec (=   0.122 min)   0.5 %
                             ****ORCA TERMINATED NORMALLY****
TOTAL RUN TIME: 0 days 0 hours 22 minutes 34 seconds 224 msec
