
                                 *****************
                                 * O   R   C   A *
                                 *****************

           --- An Ab Initio, DFT and Semiempirical electronic structure package ---

                  #######################################################
                  #                        -***-                        #
                  #          Department of theory and spectroscopy      #
                  #               Directorship: Frank Neese             #
                  #        Max Planck Institute fuer Kohlenforschung    #
                  #                Kaiser Wilhelm Platz 1               #
                  #                 D-45470 Muelheim/Ruhr               #
                  #                      Germany                        #
                  #                                                     #
                  #                  All rights reserved                #
                  #                        -***-                        #
                  #######################################################


                         Program Version 4.2.0 -  RELEASE  -


 With contributions from (in alphabetic order):
   Daniel Aravena         : Magnetic Suceptibility
   Michael Atanasov       : Ab Initio Ligand Field Theory (pilot matlab implementation)
   Alexander A. Auer      : GIAO ZORA, VPT2
   Ute Becker             : Parallelization
   Giovanni Bistoni       : ED, misc. LED, open-shell LED, HFLED
   Martin Brehm           : Molecular dynamics
   Dmytro Bykov           : SCF Hessian
   Vijay G. Chilkuri      : MRCI spin determinant printing, contributions to CSF-ICE
   Dipayan Datta          : RHF DLPNO-CCSD density
   Achintya Kumar Dutta   : EOM-CC, STEOM-CC
   Dmitry Ganyushin       : Spin-Orbit,Spin-Spin,Magnetic field MRCI
   Miquel Garcia          : C-PCM Hessian, Gaussian charge scheme
   Yang Guo               : DLPNO-NEVPT2, CIM, IAO-localization
   Andreas Hansen         : Spin unrestricted coupled pair/coupled cluster methods
   Benjamin Helmich-Paris : CASSCF linear response (MC-RPA)
   Lee Huntington         : MR-EOM, pCC
   Robert Izsak           : Overlap fitted RIJCOSX, COSX-SCS-MP3, EOM
   Christian Kollmar      : KDIIS, OOCD, Brueckner-CCSD(T), CCSD density
   Simone Kossmann        : Meta GGA functionals, TD-DFT gradient, OOMP2, MP2 Hessian
   Martin Krupicka        : AUTO-CI
   Lucas Lang             : DCDCAS
   Dagmar Lenk            : GEPOL surface, SMD
   Dimitrios Liakos       : Extrapolation schemes; Compound Job, initial MDCI parallelization
   Dimitrios Manganas     : Further ROCIS development; embedding schemes
   Dimitrios Pantazis     : SARC Basis sets
   Taras Petrenko         : DFT Hessian,TD-DFT gradient, ASA, ECA, R-Raman, ABS, FL, XAS/XES, NRVS
   Peter Pinski           : DLPNO-MP2, DLPNO-MP2 Gradient
   Christoph Reimann      : Effective Core Potentials
   Marius Retegan         : Local ZFS, SOC
   Christoph Riplinger    : Optimizer, TS searches, QM/MM, DLPNO-CCSD(T), (RO)-DLPNO pert. Triples
   Tobias Risthaus        : Range-separated hybrids, TD-DFT gradient, RPA, STAB
   Michael Roemelt        : Original ROCIS implementation
   Masaaki Saitow         : Open-shell DLPNO-CCSD energy and density
   Barbara Sandhoefer     : DKH picture change effects
   Avijit Sen             : IP-ROCIS
   Kantharuban Sivalingam : CASSCF convergence, NEVPT2, FIC-MRCI
   Bernardo de Souza      : ESD, SOC TD-DFT
   Georgi Stoychev        : AutoAux, RI-MP2 NMR
   Willem Van den Heuvel  : Paramagnetic NMR
   Boris Wezisla          : Elementary symmetry handling
   Frank Wennmohs         : Technical directorship


 We gratefully acknowledge several colleagues who have allowed us to
 interface, adapt or use parts of their codes:
   Stefan Grimme, W. Hujo, H. Kruse,             : VdW corrections, initial TS optimization,
                  C. Bannwarth                     DFT functionals, gCP, sTDA/sTD-DF
   Ed Valeev, F. Pavosevic, A. Kumar             : LibInt (2-el integral package), F12 methods
   Garnet Chan, S. Sharma, J. Yang, R. Olivares  : DMRG
   Ulf Ekstrom                                   : XCFun DFT Library
   Mihaly Kallay                                 : mrcc  (arbitrary order and MRCC methods)
   Andreas Klamt, Michael Diedenhofen            : otool_cosmo (COSMO solvation model)
   Jiri Pittner, Ondrej Demel                    : Mk-CCSD
   Frank Weinhold                                : gennbo (NPA and NBO analysis)
   Christopher J. Cramer and Donald G. Truhlar   : smd solvation model
   Lars Goerigk                                  : TD-DFT with DH, B97 family of functionals
   V. Asgeirsson, H. Jonsson                     : NEB implementation
   FAccTs GmbH                                   : IRC, NEB, NEB-TS, Multilevel, MM, QM/MM, CI optimization
   S Lehtola, MJT Oliveira, MAL Marques          : LibXC Library


 Your calculation uses the libint2 library for the computation of 2-el integrals
 For citations please refer to: http://libint.valeyev.net

 Your ORCA version has been built with support for libXC version: 4.2.3
 For citations please refer to: https://tddft.org/programs/libxc/

 This ORCA versions uses:
   CBLAS   interface :  Fast vector & matrix operations
   LAPACKE interface :  Fast linear algebra routines
   SCALAPACK package :  Parallel linear algebra routines


Your calculation utilizes the atom-pairwise dispersion correction
with the zero-damping scheme (D30)
Cite in your paper:
S.Grimme, J.Antony, S.Ehrlich and H.Krieg, J.Chem.Phys., 132, (2010), 154104 
   

XCFun DFT library Copyright 2009-2010 Ulf Ekstrom and contributors.
See http://admol.org/xcfun for more information. This is free soft-
ware; see the source code for copying conditions. There is ABSOLUTELY
NO WARRANTY; not even for MERCHANTABILITY or FITNESS FOR A PARTICULAR
PURPOSE. For details see the documentation. Scientific users of this 
library should cite U. Ekstrom, L. Visscher, R. Bast, A. J. Thorvald-
sen and K. Ruud; J.Chem.Theor.Comp. 2010, DOI: 10.1021/ct100117s
XCFun Version 0.99 
----- Orbital basis set information -----
Your calculation utilizes the basis: def2-SVP
   F. Weigend and R. Ahlrichs, Phys. Chem. Chem. Phys. 7, 3297 (2005).

================================================================================
                                        WARNINGS
                       Please study these warnings very carefully!
================================================================================


WARNING: Geometry Optimization
  ===> : Switching off AutoStart
         For restart on a previous wavefunction, please use MOREAD

INFO   : the flag for use of LIBINT has been found!

================================================================================
                                       INPUT FILE
================================================================================
NAME = 013574931.inp
|  1> # ORCA input file
|  2> # -43.44532815
|  3> ! wB97X-D3 def2-SVP Opt
|  4> * xyz 0 1
|  5>    C       -3.02620        -2.49810        -0.00180
|  6>    C       -2.25710        -1.21150        -0.00090
|  7>    C       -2.92920         0.00020         0.00020
|  8>    C       -2.25680         1.21170         0.00100
|  9>    C       -0.86150         1.21500         0.00080
| 10>    C       -0.17520        -0.00010        -0.00040
| 11>    C       -0.86170        -1.21500        -0.00150
| 12>    C       -0.12220        -2.52080        -0.00310
| 13>    H       -0.38350        -3.10620         0.87840
| 14>    H        0.95300        -2.36610        -0.00780
| 15>    H       -0.39110        -3.10830        -0.88080
| 16>    C        1.30940        -0.00020        -0.00020
| 17>    C        2.01360        -0.00620         1.19880
| 18>    C        3.39710        -0.00610         1.19840
| 19>    C        4.09180         0.00000         0.00050
| 20>    C        3.39770         0.00600        -1.19780
| 21>    C        2.01420         0.00590        -1.19890
| 22>    H        1.46880         0.01060        -2.13180
| 23>    H        3.93640         0.01070        -2.13450
| 24>    H        5.17210         0.00010         0.00080
| 25>    H        3.93530        -0.01080         2.13540
| 26>    H        1.46770        -0.01080         2.13150
| 27>    C       -0.12170         2.52070         0.00220
| 28>    H       -0.38610         3.10780        -0.87720
| 29>    H       -0.38740         3.10660         0.88200
| 30>    H        0.95340         2.36580         0.00290
| 31>    C       -3.02570         2.49840         0.00240
| 32>    H       -2.78070         3.09490        -0.87600
| 33>    H       -4.09570         2.30580         0.00130
| 34>    H       -2.78210         3.09210         0.88320
| 35>    H       -4.01080         0.00030         0.00060
| 36>    H       -2.78500        -3.09070        -0.88400
| 37>    H       -4.09610        -2.30520         0.00220
| 38>    H       -2.77900        -3.09570         0.87520
| 39> *
| 40> 
| 41>                          ****END OF INPUT****
================================================================================

                       *****************************
                       * Geometry Optimization Run *
                       *****************************

Geometry optimization settings:
Update method            Update   .... BFGS
Choice of coordinates    CoordSys .... Z-matrix Internals
Initial Hessian          InHess   .... Almoef's Model

Convergence Tolerances:
Energy Change            TolE     ....  5.0000e-06 Eh
Max. Gradient            TolMAXG  ....  3.0000e-04 Eh/bohr
RMS Gradient             TolRMSG  ....  1.0000e-04 Eh/bohr
Max. Displacement        TolMAXD  ....  4.0000e-03 bohr
RMS Displacement         TolRMSD  ....  2.0000e-03 bohr
Strict Convergence                ....  False
------------------------------------------------------------------------------
                        ORCA OPTIMIZATION COORDINATE SETUP
------------------------------------------------------------------------------

The optimization will be done in new redundant internal coordinates
Making redundant internal coordinates   ...  (new redundants) done
Evaluating the initial hessian          ...  (Almloef) done
Evaluating the coordinates              ...  done
Calculating the B-matrix                .... done
Calculating the G-matrix                .... done
Diagonalizing the G-matrix              .... done
Small eigenvalue found = 8.247e-03
Small eigenvalue found = 1.478e-02
Small eigenvalue found = 2.693e-02
The first mode is                       ....   75
The number of degrees of freedom        ....   96

    -----------------------------------------------------------------
                    Redundant Internal Coordinates


    -----------------------------------------------------------------
         Definition                    Initial Value    Approx d2E/dq
    -----------------------------------------------------------------
      1. B(C   1,C   0)                  1.4990         0.418710   
      2. B(C   2,C   1)                  1.3856         0.634936   
      3. B(C   3,C   2)                  1.3856         0.635005   
      4. B(C   4,C   3)                  1.3953         0.612740   
      5. B(C   5,C   4)                  1.3955         0.612253   
      6. B(C   6,C   5)                  1.3954         0.612424   
      7. B(C   6,C   1)                  1.3954         0.612514   
      8. B(C   7,C   6)                  1.5007         0.416092   
      9. B(H   8,C   7)                  1.0900         0.360153   
     10. B(H   9,C   7)                  1.0863         0.365052   
     11. B(H  10,C   7)                  1.0899         0.360270   
     12. B(C  11,C   5)                  1.4846         0.441378   
     13. B(C  12,C  11)                  1.3905         0.623613   
     14. B(C  13,C  12)                  1.3835         0.639895   
     15. B(C  14,C  13)                  1.3848         0.636898   
     16. B(C  15,C  14)                  1.3848         0.636794   
     17. B(C  16,C  15)                  1.3835         0.639894   
     18. B(C  16,C  11)                  1.3906         0.623508   
     19. B(H  17,C  16)                  1.0806         0.372696   
     20. B(H  18,C  15)                  1.0806         0.372796   
     21. B(H  19,C  14)                  1.0803         0.373163   
     22. B(H  20,C  13)                  1.0806         0.372781   
     23. B(H  21,C  12)                  1.0807         0.372587   
     24. B(C  22,C   4)                  1.5007         0.416000   
     25. B(H  23,C  22)                  1.0899         0.360198   
     26. B(H  24,C  22)                  1.0899         0.360207   
     27. B(H  25,C  22)                  1.0862         0.365160   
     28. B(C  26,C   3)                  1.4989         0.418735   
     29. B(H  27,C  26)                  1.0897         0.360511   
     30. B(H  28,C  26)                  1.0872         0.363828   
     31. B(H  29,C  26)                  1.0898         0.360386   
     32. B(H  30,C   2)                  1.0816         0.371385   
     33. B(H  31,C   0)                  1.0898         0.360386   
     34. B(H  32,C   0)                  1.0872         0.363879   
     35. B(H  33,C   0)                  1.0897         0.360548   
     36. A(H  31,C   0,H  32)          108.4984         0.291353   
     37. A(H  31,C   0,H  33)          107.6437         0.290932   
     38. A(C   1,C   0,H  31)          110.7117         0.330516   
     39. A(C   1,C   0,H  33)          110.7230         0.330541   
     40. A(H  32,C   0,H  33)          108.5183         0.291374   
     41. A(C   1,C   0,H  32)          110.6493         0.331044   
     42. A(C   0,C   1,C   6)          120.7263         0.403864   
     43. A(C   0,C   1,C   2)          120.1140         0.406436   
     44. A(C   2,C   1,C   6)          119.1598         0.434978   
     45. A(C   3,C   2,H  30)          119.0256         0.356201   
     46. A(C   1,C   2,H  30)          119.0214         0.356194   
     47. A(C   1,C   2,C   3)          121.9531         0.437813   
     48. A(C   2,C   3,C   4)          119.1664         0.435015   
     49. A(C   2,C   3,C  26)          120.1076         0.406448   
     50. A(C   4,C   3,C  26)          120.7260         0.403894   
     51. A(C   3,C   4,C   5)          119.3227         0.432169   
     52. A(C   5,C   4,C  22)          121.0063         0.403371   
     53. A(C   3,C   4,C  22)          119.6711         0.403427   
     54. A(C   4,C   5,C   6)          121.0725         0.432129   
     55. A(C   6,C   5,C  11)          119.4655         0.407633   
     56. A(C   4,C   5,C  11)          119.4620         0.407613   
     57. A(C   5,C   6,C   7)          121.0069         0.403407   
     58. A(C   1,C   6,C   7)          119.6674         0.403417   
     59. A(C   1,C   6,C   5)          119.3256         0.432162   
     60. A(H   8,C   7,H  10)          107.6160         0.290868   
     61. A(C   6,C   7,H  10)          110.3855         0.330156   
     62. A(H   8,C   7,H   9)          108.4982         0.291471   
     63. A(C   6,C   7,H   9)          111.3362         0.330877   
     64. A(C   6,C   7,H   8)          110.3861         0.330138   
     65. A(H   9,C   7,H  10)          108.5114         0.291486   
     66. A(C  12,C  11,C  16)          119.1197         0.434962   
     67. A(C   5,C  11,C  16)          120.4462         0.408929   
     68. A(C   5,C  11,C  12)          120.4341         0.408941   
     69. A(C  11,C  12,C  13)          120.4098         0.436999   
     70. A(C  13,C  12,H  21)          120.3563         0.356861   
     71. A(C  11,C  12,H  21)          119.2339         0.355303   
     72. A(C  12,C  13,C  14)          120.1271         0.438663   
     73. A(C  14,C  13,H  20)          120.0174         0.356608   
     74. A(C  12,C  13,H  20)          119.8556         0.356893   
     75. A(C  13,C  14,H  19)          120.0946         0.356670   
     76. A(C  13,C  14,C  15)          119.8088         0.438279   
     77. A(C  15,C  14,H  19)          120.0966         0.356660   
     78. A(C  16,C  15,H  18)          119.8575         0.356895   
     79. A(C  14,C  15,H  18)          120.0162         0.356601   
     80. A(C  14,C  15,C  16)          120.1262         0.438650   
     81. A(C  15,C  16,H  17)          120.3570         0.356879   
     82. A(C  11,C  16,H  17)          119.2346         0.355310   
     83. A(C  11,C  16,C  15)          120.4084         0.436986   
     84. A(H  24,C  22,H  25)          108.5075         0.291491   
     85. A(H  23,C  22,H  25)          108.5083         0.291490   
     86. A(C   4,C  22,H  25)          111.3369         0.330881   
     87. A(H  23,C  22,H  24)          107.6136         0.290865   
     88. A(C   4,C  22,H  24)          110.3824         0.330135   
     89. A(C   4,C  22,H  23)          110.3848         0.330133   
     90. A(H  28,C  26,H  29)          108.5011         0.291347   
     91. A(H  27,C  26,H  29)          107.6404         0.290928   
     92. A(C   3,C  26,H  29)          110.7164         0.330520   
     93. A(H  27,C  26,H  28)          108.5080         0.291363   
     94. A(C   3,C  26,H  28)          110.6574         0.331040   
     95. A(C   3,C  26,H  27)          110.7206         0.330539   
     96. D(C   6,C   1,C   0,H  31)    -59.8592         0.012966   
     97. D(C   2,C   1,C   0,H  32)     -0.2056         0.012966   
     98. D(C   2,C   1,C   0,H  33)   -120.5679         0.012966   
     99. D(C   2,C   1,C   0,H  31)    120.1243         0.012966   
    100. D(C   6,C   1,C   0,H  33)     59.4486         0.012966   
    101. D(C   6,C   1,C   0,H  32)    179.8109         0.012966   
    102. D(H  30,C   2,C   1,C   0)      0.0124         0.027980   
    103. D(H  30,C   2,C   1,C   6)    179.9962         0.027980   
    104. D(C   3,C   2,C   1,C   0)   -179.9972         0.027980   
    105. D(C   3,C   2,C   1,C   6)     -0.0135         0.027980   
    106. D(C  26,C   3,C   2,C   1)   -179.9903         0.027987   
    107. D(C   4,C   3,C   2,H  30)    179.9853         0.027987   
    108. D(C  26,C   3,C   2,H  30)      0.0001         0.027987   
    109. D(C   4,C   3,C   2,C   1)     -0.0051         0.027987   
    110. D(C  22,C   4,C   3,C   2)   -179.9763         0.025944   
    111. D(C   5,C   4,C   3,C  26)    179.9945         0.025944   
    112. D(C  22,C   4,C   3,C  26)      0.0088         0.025944   
    113. D(C   5,C   4,C   3,C   2)      0.0094         0.025944   
    114. D(C  11,C   5,C   4,C  22)      0.0039         0.025900   
    115. D(C  11,C   5,C   4,C   3)   -179.9816         0.025900   
    116. D(C   6,C   5,C   4,C  22)    179.9903         0.025900   
    117. D(C   6,C   5,C   4,C   3)      0.0048         0.025900   
    118. D(C   7,C   6,C   5,C  11)     -0.0275         0.025915   
    119. D(C   7,C   6,C   5,C   4)    179.9862         0.025915   
    120. D(C   1,C   6,C   5,C  11)    179.9630         0.025915   
    121. D(C   1,C   6,C   5,C   4)     -0.0233         0.025915   
    122. D(C   7,C   6,C   1,C   2)   -179.9821         0.025923   
    123. D(C   7,C   6,C   1,C   0)      0.0016         0.025923   
    124. D(C   5,C   6,C   1,C   2)      0.0273         0.025923   
    125. D(C   5,C   6,C   1,C   0)   -179.9890         0.025923   
    126. D(H   8,C   7,C   6,C   1)    -59.6821         0.012810   
    127. D(H  10,C   7,C   6,C   5)   -120.8411         0.012810   
    128. D(H   9,C   7,C   6,C   5)     -0.2583         0.012810   
    129. D(H  10,C   7,C   6,C   1)     59.1685         0.012810   
    130. D(H   9,C   7,C   6,C   1)    179.7513         0.012810   
    131. D(H   8,C   7,C   6,C   5)    120.3084         0.012810   
    132. D(C  16,C  11,C   5,C   6)     90.2463         0.013291   
    133. D(C  16,C  11,C   5,C   4)    -89.7671         0.013291   
    134. D(C  12,C  11,C   5,C   6)    -89.7630         0.013291   
    135. D(C  12,C  11,C   5,C   4)     90.2235         0.013291   
    136. D(H  21,C  12,C  11,C  16)    179.9911         0.026930   
    137. D(H  21,C  12,C  11,C   5)      0.0003         0.026930   
    138. D(C  13,C  12,C  11,C  16)     -0.0001         0.026930   
    139. D(C  13,C  12,C  11,C   5)   -179.9909         0.026930   
    140. D(H  20,C  13,C  12,H  21)      0.0095         0.028449   
    141. D(H  20,C  13,C  12,C  11)   -179.9994         0.028449   
    142. D(C  14,C  13,C  12,H  21)   -179.9908         0.028449   
    143. D(C  14,C  13,C  12,C  11)      0.0003         0.028449   
    144. D(H  19,C  14,C  13,H  20)     -0.0018         0.028165   
    145. D(H  19,C  14,C  13,C  12)    179.9985         0.028165   
    146. D(C  15,C  14,C  13,H  20)    179.9995         0.028165   
    147. D(C  15,C  14,C  13,C  12)     -0.0002         0.028165   
    148. D(H  18,C  15,C  14,H  19)      0.0056         0.028155   
    149. D(H  18,C  15,C  14,C  13)   -179.9957         0.028155   
    150. D(C  16,C  15,C  14,H  19)   -179.9988         0.028155   
    151. D(C  16,C  15,C  14,C  13)     -0.0002         0.028155   
    152. D(C  11,C  16,C  15,H  18)    179.9960         0.028448   
    153. D(C  11,C  16,C  15,C  14)      0.0004         0.028448   
    154. D(H  17,C  16,C  11,C  12)   -179.9981         0.026920   
    155. D(H  17,C  16,C  11,C   5)     -0.0073         0.026920   
    156. D(C  15,C  16,C  11,C  12)     -0.0003         0.026920   
    157. D(H  17,C  16,C  15,C  14)    179.9982         0.028448   
    158. D(C  15,C  16,C  11,C   5)    179.9905         0.026920   
    159. D(H  17,C  16,C  15,H  18)     -0.0062         0.028448   
    160. D(H  25,C  22,C   4,C   5)     -0.0441         0.012804   
    161. D(H  25,C  22,C   4,C   3)    179.9413         0.012804   
    162. D(H  24,C  22,C   4,C   5)   -120.6204         0.012804   
    163. D(H  24,C  22,C   4,C   3)     59.3651         0.012804   
    164. D(H  23,C  22,C   4,C   5)    120.5348         0.012804   
    165. D(H  23,C  22,C   4,C   3)    -59.4797         0.012804   
    166. D(H  29,C  26,C   3,C   4)    -59.7181         0.012968   
    167. D(H  29,C  26,C   3,C   2)    120.2668         0.012968   
    168. D(H  28,C  26,C   3,C   4)    179.9401         0.012968   
    169. D(H  28,C  26,C   3,C   2)     -0.0749         0.012968   
    170. D(H  27,C  26,C   3,C   4)     59.5870         0.012968   
    171. D(H  27,C  26,C   3,C   2)   -120.4281         0.012968   
    -----------------------------------------------------------------

Number of atoms                         .... 34
Number of degrees of freedom            .... 171

         *************************************************************
         *                GEOMETRY OPTIMIZATION CYCLE   1            *
         *************************************************************
---------------------------------
CARTESIAN COORDINATES (ANGSTROEM)
---------------------------------
  C     -3.026200   -2.498100   -0.001800
  C     -2.257100   -1.211500   -0.000900
  C     -2.929200    0.000200    0.000200
  C     -2.256800    1.211700    0.001000
  C     -0.861500    1.215000    0.000800
  C     -0.175200   -0.000100   -0.000400
  C     -0.861700   -1.215000   -0.001500
  C     -0.122200   -2.520800   -0.003100
  H     -0.383500   -3.106200    0.878400
  H      0.953000   -2.366100   -0.007800
  H     -0.391100   -3.108300   -0.880800
  C      1.309400   -0.000200   -0.000200
  C      2.013600   -0.006200    1.198800
  C      3.397100   -0.006100    1.198400
  C      4.091800    0.000000    0.000500
  C      3.397700    0.006000   -1.197800
  C      2.014200    0.005900   -1.198900
  H      1.468800    0.010600   -2.131800
  H      3.936400    0.010700   -2.134500
  H      5.172100    0.000100    0.000800
  H      3.935300   -0.010800    2.135400
  H      1.467700   -0.010800    2.131500
  C     -0.121700    2.520700    0.002200
  H     -0.386100    3.107800   -0.877200
  H     -0.387400    3.106600    0.882000
  H      0.953400    2.365800    0.002900
  C     -3.025700    2.498400    0.002400
  H     -2.780700    3.094900   -0.876000
  H     -4.095700    2.305800    0.001300
  H     -2.782100    3.092100    0.883200
  H     -4.010800    0.000300    0.000600
  H     -2.785000   -3.090700   -0.884000
  H     -4.096100   -2.305200    0.002200
  H     -2.779000   -3.095700    0.875200

----------------------------
CARTESIAN COORDINATES (A.U.)
----------------------------
  NO LB      ZA    FRAG     MASS         X           Y           Z
   0 C     6.0000    0    12.011   -5.718689   -4.720725   -0.003402
   1 C     6.0000    0    12.011   -4.265301   -2.289403   -0.001701
   2 C     6.0000    0    12.011   -5.535386    0.000378    0.000378
   3 C     6.0000    0    12.011   -4.264734    2.289781    0.001890
   4 C     6.0000    0    12.011   -1.627999    2.296017    0.001512
   5 C     6.0000    0    12.011   -0.331080   -0.000189   -0.000756
   6 C     6.0000    0    12.011   -1.628377   -2.296017   -0.002835
   7 C     6.0000    0    12.011   -0.230925   -4.763622   -0.005858
   8 H     1.0000    0     1.008   -0.724710   -5.869867    1.659935
   9 H     1.0000    0     1.008    1.800909   -4.471281   -0.014740
  10 H     1.0000    0     1.008   -0.739072   -5.873836   -1.664471
  11 C     6.0000    0    12.011    2.474407   -0.000378   -0.000378
  12 C     6.0000    0    12.011    3.805153   -0.011716    2.265404
  13 C     6.0000    0    12.011    6.419589   -0.011527    2.264648
  14 C     6.0000    0    12.011    7.732381    0.000000    0.000945
  15 C     6.0000    0    12.011    6.420722    0.011338   -2.263514
  16 C     6.0000    0    12.011    3.806286    0.011149   -2.265593
  17 H     1.0000    0     1.008    2.775630    0.020031   -4.028518
  18 H     1.0000    0     1.008    7.438718    0.020220   -4.033620
  19 H     1.0000    0     1.008    9.773853    0.000189    0.001512
  20 H     1.0000    0     1.008    7.436639   -0.020409    4.035321
  21 H     1.0000    0     1.008    2.773551   -0.020409    4.027951
  22 C     6.0000    0    12.011   -0.229980    4.763433    0.004157
  23 H     1.0000    0     1.008   -0.729623    5.872891   -1.657668
  24 H     1.0000    0     1.008   -0.732080    5.870623    1.666738
  25 H     1.0000    0     1.008    1.801665    4.470714    0.005480
  26 C     6.0000    0    12.011   -5.717744    4.721292    0.004535
  27 H     1.0000    0     1.008   -5.254761    5.848513   -1.655400
  28 H     1.0000    0     1.008   -7.739751    4.357331    0.002457
  29 H     1.0000    0     1.008   -5.257407    5.843222    1.669006
  30 H     1.0000    0     1.008   -7.579314    0.000567    0.001134
  31 H     1.0000    0     1.008   -5.262887   -5.840577   -1.670518
  32 H     1.0000    0     1.008   -7.740507   -4.356197    0.004157
  33 H     1.0000    0     1.008   -5.251549   -5.850025    1.653888

--------------------------------
INTERNAL COORDINATES (ANGSTROEM)
--------------------------------
 C      0   0   0     0.000000000000     0.00000000     0.00000000
 C      1   0   0     1.498951360118     0.00000000     0.00000000
 C      2   1   0     1.385617735885   120.11395249     0.00000000
 C      3   2   1     1.385588196399   121.95305873   180.00276964
 C      4   3   2     1.395303916715   119.16640533     0.00000000
 C      5   4   3     1.395520383226   119.32265994     0.00000000
 C      2   1   3     1.395404518410   120.72627719   180.01647753
 C      7   2   1     1.500658672050   119.66744351     0.00000000
 H      8   7   2     1.089960136886   110.38613019   300.31788387
 H      8   7   2     1.086282292961   111.33624597   179.75127393
 H      8   7   2     1.089871896142   110.38548841    59.16845013
 C      6   5   4     1.484600016840   119.46201254   180.01844249
 C     12   6   5     1.390515961793   120.43411072    90.22352516
 C     13  12   6     1.383500061438   120.40978683   180.00913705
 C     14  13  12     1.384777855831   120.12706212     0.00000000
 C     15  14  13     1.384822624021   119.80881456     0.00000000
 C     16  15  14     1.383500440911   120.12624298     0.00000000
 H     17  16  15     1.080641318847   120.35699323   179.99820176
 H     16  15  14     1.080567753544   120.01621868   180.00426039
 H     15  14  13     1.080300046283   120.09459187   179.99846699
 H     14  13  12     1.080578701437   119.85557363   180.00062568
 H     13  12   6     1.080720713228   119.23391815     0.00000000
 C      5   4   3     1.500719324191   119.67105698   180.02372727
 H     23   5   4     1.089925745177   110.38476884   300.52026475
 H     23   5   4     1.089918960290   110.38244622    59.36508409
 H     23   5   4     1.086201873502   111.33686140   179.94133401
 C      4   3   2     1.498934975241   120.10761636   180.00970332
 H     27   4   3     1.089689776955   110.72061190   239.57191145
 H     27   4   3     1.087196380605   110.65743985   359.92507995
 H     27   4   3     1.089784056591   110.71635860   120.26682399
 H      3   2   1     1.081600078587   119.02135196     0.00000000
 H      1   2   3     1.089783941889   110.71174979   120.12431615
 H      1   2   3     1.087157955405   110.64926161   359.79438197
 H      1   2   3     1.089661690618   110.72299827   239.43211919

---------------------------
INTERNAL COORDINATES (A.U.)
---------------------------
 C      0   0   0     0.000000000000     0.00000000     0.00000000
 C      1   0   0     2.832607558692     0.00000000     0.00000000
 C      2   1   0     2.618438047127   120.11395249     0.00000000
 C      3   2   1     2.618382225588   121.95305873   180.00276964
 C      4   3   2     2.636742276179   119.16640533     0.00000000
 C      5   4   3     2.637151338602   119.32265994     0.00000000
 C      2   1   3     2.636932385832   120.72627719   180.01647753
 C      7   2   1     2.835833910669   119.66744351     0.00000000
 H      8   7   2     2.059726155605   110.38613019   300.31788387
 H      8   7   2     2.052776037824   111.33624597   179.75127393
 H      8   7   2     2.059559404766   110.38548841    59.16845013
 C      6   5   4     2.805487450242   119.46201254   180.01844249
 C     12   6   5     2.627694352634   120.43411072    90.22352516
 C     13  12   6     2.614436222382   120.40978683   180.00913705
 C     14  13  12     2.616850903839   120.12706212     0.00000000
 C     15  14  13     2.616935503458   119.80881456     0.00000000
 C     16  15  14     2.614436939480   120.12624298     0.00000000
 H     17  16  15     2.042116141621   120.35699323   179.99820176
 H     16  15  14     2.041977123345   120.01621868   180.00426039
 H     15  14  13     2.041471229938   120.09459187   179.99846699
 H     14  13  12     2.041997811865   119.85557363   180.00062568
 H     13  12   6     2.042266175257   119.23391815     0.00000000
 C      5   4   3     2.835948526604   119.67105698   180.02372727
 H     23   5   4     2.059661164695   110.38476884   300.52026475
 H     23   5   4     2.059648343117   110.38244622    59.36508409
 H     23   5   4     2.052624067072   111.33686140   179.94133401
 C      4   3   2     2.832576595761   120.10761636   180.00970332
 H     27   4   3     2.059215249378   110.72061190   239.57191145
 H     27   4   3     2.054503413133   110.65743985   359.92507995
 H     27   4   3     2.059393412071   110.71635860   120.26682399
 H      3   2   1     2.043927934958   119.02135196     0.00000000
 H      1   2   3     2.059393195316   110.71174979   120.12431615
 H      1   2   3     2.054430800029   110.64926161   359.79438197
 H      1   2   3     2.059162173893   110.72299827   239.43211919

---------------------
BASIS SET INFORMATION
---------------------
There are 2 groups of distinct atoms

 Group   1 Type C   : 7s4p1d contracted to 3s2p1d pattern {511/31/1}
 Group   2 Type H   : 4s1p contracted to 2s1p pattern {31/1}

Atom   0C    basis set group =>   1
Atom   1C    basis set group =>   1
Atom   2C    basis set group =>   1
Atom   3C    basis set group =>   1
Atom   4C    basis set group =>   1
Atom   5C    basis set group =>   1
Atom   6C    basis set group =>   1
Atom   7C    basis set group =>   1
Atom   8H    basis set group =>   2
Atom   9H    basis set group =>   2
Atom  10H    basis set group =>   2
Atom  11C    basis set group =>   1
Atom  12C    basis set group =>   1
Atom  13C    basis set group =>   1
Atom  14C    basis set group =>   1
Atom  15C    basis set group =>   1
Atom  16C    basis set group =>   1
Atom  17H    basis set group =>   2
Atom  18H    basis set group =>   2
Atom  19H    basis set group =>   2
Atom  20H    basis set group =>   2
Atom  21H    basis set group =>   2
Atom  22C    basis set group =>   1
Atom  23H    basis set group =>   2
Atom  24H    basis set group =>   2
Atom  25H    basis set group =>   2
Atom  26C    basis set group =>   1
Atom  27H    basis set group =>   2
Atom  28H    basis set group =>   2
Atom  29H    basis set group =>   2
Atom  30H    basis set group =>   2
Atom  31H    basis set group =>   2
Atom  32H    basis set group =>   2
Atom  33H    basis set group =>   2
------------------------------------------------------------------------------
                           ORCA GTO INTEGRAL CALCULATION
------------------------------------------------------------------------------

                         BASIS SET STATISTICS AND STARTUP INFO

 # of primitive gaussian shells          ...  282
 # of primitive gaussian functions       ...  510
 # of contracted shells                  ...  150
 # of contracted basis functions         ...  314
 Highest angular momentum                ...    2
 Maximum contraction depth               ...    5
 Integral package used                   ... LIBINT
 Integral threshhold            Thresh   ...  2.500e-11
 Primitive cut-off              TCut     ...  2.500e-12


------------------------------ INTEGRAL EVALUATION ----------------------------


 * One electron integrals 
 Pre-screening matrix                    ... done
 Shell pair data                         ... done (   0.003 sec)

-------------------------------------------------------------------------------
                                 ORCA SCF
-------------------------------------------------------------------------------

------------
SCF SETTINGS
------------
Hamiltonian:
 Density Functional     Method          .... DFT(GTOs)
 Exchange Functional    Exchange        .... WB97X-D3
 Correlation Functional Correlation     .... WB97X-D3
 Gradients option       PostSCFGGA      .... off
 Hybrid DFT is turned on
   Fraction HF Exchange ScalHFX         ....  0.195728
   Scaling of DF-GGA-X  ScalDFX         ....  0.000000
   Scaling of DF-GGA-C  ScalDFC         ....  1.000000
   Scaling of DF-LDA-C  ScalLDAC        ....  1.000000
   Perturbative correction              ....  0.000000
   Density functional embedding theory  .... OFF
 Long-range corrected/Screened/Range-Separated Hybrid DFT is turned on
   Amount of maximum screened exact exchange              ....  0.804272
   Range separation parameter mu (erf(mu*r12)/r12)        ....  0.250000


General Settings:
 Integral files         IntName         .... 013574931
 Hartree-Fock type      HFTyp           .... RHF
 Total Charge           Charge          ....    0
 Multiplicity           Mult            ....    1
 Number of Electrons    NEL             ....  114
 Basis Dimension        Dim             ....  314
 Nuclear Repulsion      ENuc            ....   1048.8830967192 Eh

Convergence Acceleration:
 DIIS                   CNVDIIS         .... on
   Start iteration      DIISMaxIt       ....    12
   Startup error        DIISStart       ....  0.200000
   # of expansion vecs  DIISMaxEq       ....     5
   Bias factor          DIISBfac        ....   1.050
   Max. coefficient     DIISMaxC        ....  10.000
 Newton-Raphson         CNVNR           .... off
 SOSCF                  CNVSOSCF        .... on
   Start iteration      SOSCFMaxIt      ....   150
   Startup grad/error   SOSCFStart      ....  0.003300
 Level Shifting         CNVShift        .... on
   Level shift para.    LevelShift      ....    0.2500
   Turn off err/grad.   ShiftErr        ....    0.0010
 Zerner damping         CNVZerner       .... off
 Static damping         CNVDamp         .... on
   Fraction old density DampFac         ....    0.7000
   Max. Damping (<1)    DampMax         ....    0.9800
   Min. Damping (>=0)   DampMin         ....    0.0000
   Turn off err/grad.   DampErr         ....    0.1000
 Fernandez-Rico         CNVRico         .... off

SCF Procedure:
 Maximum # iterations   MaxIter         ....   125
 SCF integral mode      SCFMode         .... Direct
   Integral package                     .... LIBINT
 Reset frequency        DirectResetFreq ....    20
 Integral Threshold     Thresh          ....  2.500e-11 Eh
 Primitive CutOff       TCut            ....  2.500e-12 Eh

Convergence Tolerance:
 Convergence Check Mode ConvCheckMode   .... Total+1el-Energy
 Convergence forced     ConvForced      .... 0
 Energy Change          TolE            ....  1.000e-08 Eh
 1-El. energy change                    ....  1.000e-05 Eh
 Orbital Gradient       TolG            ....  1.000e-05
 Orbital Rotation angle TolX            ....  1.000e-05
 DIIS Error             TolErr          ....  5.000e-07


Diagonalization of the overlap matrix:
Smallest eigenvalue                        ... 1.702e-04
Time for diagonalization                   ...    0.461 sec
Threshold for overlap eigenvalues          ... 1.000e-08
Number of eigenvalues below threshold      ... 0
Time for construction of square roots      ...    0.005 sec
Total time needed                          ...    0.467 sec

-------------------
DFT GRID GENERATION
-------------------

General Integration Accuracy     IntAcc      ...  4.340
Radial Grid Type                 RadialGrid  ... Gauss-Chebyshev
Angular Grid (max. acc.)         AngularGrid ... Lebedev-110
Angular grid pruning method      GridPruning ... 3 (G Style)
Weight generation scheme         WeightScheme... Becke
Basis function cutoff            BFCut       ...    1.0000e-11
Integration weight cutoff        WCut        ...    1.0000e-14
Grids for H and He will be reduced by one unit

# of grid points (after initial pruning)     ...  40788 (   0.0 sec)
# of grid points (after weights+screening)   ...  36244 (   0.2 sec)
nearest neighbour list constructed           ...    0.0 sec
Grid point re-assignment to atoms done       ...    0.0 sec
Grid point division into batches done        ...    0.0 sec
Reduced shell lists constructed in    0.4 sec

Total number of grid points                  ...    36244
Total number of batches                      ...      584
Average number of points per batch           ...       62
Average number of grid points per atom       ...     1066
Average number of shells per batch           ...    87.19 (58.13%)
Average number of basis functions per batch  ...   172.88 (55.06%)
Average number of large shells per batch     ...    60.18 (69.02%)
Average number of large basis fcns per batch ...   119.70 (69.24%)
Maximum spatial batch extension              ...  19.44, 21.04, 21.59 au
Average spatial batch extension              ...   3.27,  3.51,  3.48 au

Time for grid setup =    0.625 sec

------------------------------
INITIAL GUESS: MODEL POTENTIAL
------------------------------
Loading Hartree-Fock densities                     ... done
Calculating cut-offs                               ... done
Setting up the integral package                    ... done
Initializing the effective Hamiltonian             ... done
Starting the Coulomb interaction                   ... done (   0.5 sec)
Reading the grid                                   ... done
Mapping shells                                     ... done
Starting the XC term evaluation                    ... done (   0.6 sec)
  promolecular density results
     # of electrons  =    114.048346145
     EX              =    -87.226104606
     EC              =     -3.779098877
     EX+EC           =    -91.005203483
Transforming the Hamiltonian                       ... done (   0.0 sec)
Diagonalizing the Hamiltonian                      ... done (   0.0 sec)
Back transforming the eigenvectors                 ... done (   0.0 sec)
Now organizing SCF variables                       ... done
                      ------------------
                      INITIAL GUESS DONE (   1.9 sec)
                      ------------------
--------------
SCF ITERATIONS
--------------
ITER       Energy         Delta-E        Max-DP      RMS-DP      [F,P]     Damp
               ***  Starting incremental Fock matrix formation  ***
  0   -619.5987318272   0.000000000000 0.06316275  0.00170085  0.1555660 0.7000
  1   -619.7312691132  -0.132537285972 0.04277089  0.00126271  0.0963768 0.7000
                               ***Turning on DIIS***
  2   -619.8052738474  -0.074004734214 0.07674054  0.00268293  0.0522748 0.0000
  3   -619.9288672763  -0.123593428955 0.03145923  0.00062837  0.0319584 0.0000
  4   -619.9434606157  -0.014593339375 0.00447802  0.00015233  0.0054730 0.0000
                      *** Initiating the SOSCF procedure ***
                           *** Shutting down DIIS ***
                      *** Re-Reading the Fockian *** 
                      *** Removing any level shift *** 
ITER      Energy       Delta-E        Grad      Rot      Max-DP    RMS-DP
  5   -619.94382569  -0.0003650741  0.000550  0.000550  0.001912  0.000075
               *** Restarting incremental Fock matrix formation ***
  6   -619.94384913  -0.0000234387  0.000277  0.000687  0.001511  0.000026
  7   -619.94384961  -0.0000004824  0.000299  0.000363  0.000756  0.000012
  8   -619.94385268  -0.0000030675  0.000045  0.000104  0.000130  0.000003
  9   -619.94385270  -0.0000000179  0.000038  0.000049  0.000064  0.000001
 10   -619.94385274  -0.0000000409  0.000005  0.000015  0.000012  0.000000
 11   -619.94385274  -0.0000000010  0.000003  0.000012  0.000008  0.000000
                  ***Gradient check signals convergence***
              ***Rediagonalizing the Fockian in SOSCF/NRSCF***

               *****************************************************
               *                     SUCCESS                       *
               *           SCF CONVERGED AFTER  12 CYCLES          *
               *****************************************************

Setting up the final grid:

General Integration Accuracy     IntAcc      ...  4.670
Radial Grid Type                 RadialGrid  ... Gauss-Chebyshev
Angular Grid (max. acc.)         AngularGrid ... Lebedev-302
Angular grid pruning method      GridPruning ... 3 (G Style)
Weight generation scheme         WeightScheme... Becke
Basis function cutoff            BFCut       ...    1.0000e-11
Integration weight cutoff        WCut        ...    1.0000e-14
Grids for H and He will be reduced by one unit

# of grid points (after initial pruning)     ... 160484 (   0.1 sec)
# of grid points (after weights+screening)   ... 139702 (   0.9 sec)
nearest neighbour list constructed           ...    0.0 sec
Grid point re-assignment to atoms done       ...    0.0 sec
Grid point division into batches done        ...    0.4 sec
Reduced shell lists constructed in    1.6 sec

Total number of grid points                  ...   139702
Total number of batches                      ...     2199
Average number of points per batch           ...       63
Average number of grid points per atom       ...     4109
Average number of shells per batch           ...    79.75 (53.17%)
Average number of basis functions per batch  ...   156.76 (49.92%)
Average number of large shells per batch     ...    53.89 (67.57%)
Average number of large basis fcns per batch ...   106.16 (67.72%)
Maximum spatial batch extension              ...  19.70, 18.86, 20.64 au
Average spatial batch extension              ...   2.16,  2.24,  2.29 au

Final grid set up in    2.7 sec
Final integration                            ... done (   2.9 sec)
Change in XC energy                          ...     0.003471248
Integrated number of electrons               ...   114.000070912
Previous integrated no of electrons          ...   114.024858819

----------------
TOTAL SCF ENERGY
----------------

Total Energy       :         -619.94038149 Eh          -16869.43541 eV

Components:
Nuclear Repulsion  :         1048.88309672 Eh           28541.56009 eV
Electronic Energy  :        -1668.82347821 Eh          -45410.99549 eV
One Electron Energy:        -2917.64895000 Eh          -79393.26421 eV
Two Electron Energy:         1248.82547179 Eh           33982.26871 eV

Virial components:
Potential Energy   :        -1233.10746078 Eh          -33554.55989 eV
Kinetic Energy     :          613.16707929 Eh           16685.12448 eV
Virial Ratio       :            2.01104642


DFT components:
N(Alpha)           :       57.000035456020 electrons
N(Beta)            :       57.000035456020 electrons
N(Total)           :      114.000070912039 electrons
E(XC)              :      -63.774740819893 Eh       
DFET-embed. en.    :        0.000000000000 Eh       

---------------
SCF CONVERGENCE
---------------

  Last Energy change         ...   -5.1086e-09  Tolerance :   1.0000e-08
  Last MAX-Density change    ...    1.6194e-06  Tolerance :   1.0000e-07
  Last RMS-Density change    ...    4.7193e-08  Tolerance :   5.0000e-09
  Last Orbital Gradient      ...    6.7697e-07  Tolerance :   1.0000e-05
  Last Orbital Rotation      ...    1.1117e-06  Tolerance :   1.0000e-05

             **** THE GBW FILE WAS UPDATED (013574931.gbw) ****
             **** DENSITY FILE WAS UPDATED (013574931.scfp) ****
             **** ENERGY FILE WAS UPDATED (013574931.en.tmp) ****
             **** THE GBW FILE WAS UPDATED (013574931.gbw) ****
             **** DENSITY FILE WAS UPDATED (013574931.scfp) ****
----------------
ORBITAL ENERGIES
----------------

  NO   OCC          E(Eh)            E(eV) 
   0   2.0000     -10.293869      -280.1104 
   1   2.0000     -10.289574      -279.9935 
   2   2.0000     -10.289476      -279.9909 
   3   2.0000     -10.288210      -279.9564 
   4   2.0000     -10.286848      -279.9194 
   5   2.0000     -10.286822      -279.9187 
   6   2.0000     -10.282972      -279.8139 
   7   2.0000     -10.282589      -279.8035 
   8   2.0000     -10.282355      -279.7971 
   9   2.0000     -10.281429      -279.7719 
  10   2.0000     -10.281378      -279.7705 
  11   2.0000     -10.278138      -279.6824 
  12   2.0000     -10.278122      -279.6819 
  13   2.0000     -10.273331      -279.5516 
  14   2.0000     -10.273309      -279.5509 
  15   2.0000     -10.272885      -279.5394 
  16   2.0000      -0.987609       -26.8742 
  17   2.0000      -0.965510       -26.2729 
  18   2.0000      -0.907630       -24.6979 
  19   2.0000      -0.896265       -24.3886 
  20   2.0000      -0.856658       -23.3108 
  21   2.0000      -0.843073       -22.9412 
  22   2.0000      -0.832553       -22.6549 
  23   2.0000      -0.817493       -22.2451 
  24   2.0000      -0.771477       -20.9929 
  25   2.0000      -0.738695       -20.1009 
  26   2.0000      -0.722558       -19.6618 
  27   2.0000      -0.710740       -19.3402 
  28   2.0000      -0.671234       -18.2652 
  29   2.0000      -0.646247       -17.5853 
  30   2.0000      -0.618685       -16.8353 
  31   2.0000      -0.598317       -16.2810 
  32   2.0000      -0.569575       -15.4989 
  33   2.0000      -0.560732       -15.2583 
  34   2.0000      -0.550507       -14.9801 
  35   2.0000      -0.536787       -14.6067 
  36   2.0000      -0.525811       -14.3080 
  37   2.0000      -0.522342       -14.2137 
  38   2.0000      -0.519521       -14.1369 
  39   2.0000      -0.505652       -13.7595 
  40   2.0000      -0.495110       -13.4726 
  41   2.0000      -0.492066       -13.3898 
  42   2.0000      -0.491003       -13.3609 
  43   2.0000      -0.488990       -13.3061 
  44   2.0000      -0.481061       -13.0903 
  45   2.0000      -0.475514       -12.9394 
  46   2.0000      -0.463330       -12.6079 
  47   2.0000      -0.454790       -12.3755 
  48   2.0000      -0.451662       -12.2903 
  49   2.0000      -0.440117       -11.9762 
  50   2.0000      -0.423113       -11.5135 
  51   2.0000      -0.414161       -11.2699 
  52   2.0000      -0.408102       -11.1050 
  53   2.0000      -0.342520        -9.3204 
  54   2.0000      -0.332818        -9.0564 
  55   2.0000      -0.317575        -8.6417 
  56   2.0000      -0.302895        -8.2422 
  57   0.0000       0.065242         1.7753 
  58   0.0000       0.071890         1.9562 
  59   0.0000       0.086022         2.3408 
  60   0.0000       0.088598         2.4109 
  61   0.0000       0.143916         3.9161 
  62   0.0000       0.155538         4.2324 
  63   0.0000       0.157727         4.2920 
  64   0.0000       0.175040         4.7631 
  65   0.0000       0.191087         5.1997 
  66   0.0000       0.199775         5.4362 
  67   0.0000       0.202135         5.5004 
  68   0.0000       0.203057         5.5255 
  69   0.0000       0.206963         5.6318 
  70   0.0000       0.210506         5.7282 
  71   0.0000       0.229951         6.2573 
  72   0.0000       0.231511         6.2997 
  73   0.0000       0.235018         6.3952 
  74   0.0000       0.243446         6.6245 
  75   0.0000       0.247162         6.7256 
  76   0.0000       0.250884         6.8269 
  77   0.0000       0.263834         7.1793 
  78   0.0000       0.264659         7.2017 
  79   0.0000       0.303565         8.2604 
  80   0.0000       0.311515         8.4768 
  81   0.0000       0.322528         8.7764 
  82   0.0000       0.333273         9.0688 
  83   0.0000       0.338978         9.2241 
  84   0.0000       0.353371         9.6157 
  85   0.0000       0.357909         9.7392 
  86   0.0000       0.377808        10.2807 
  87   0.0000       0.383659        10.4399 
  88   0.0000       0.411000        11.1839 
  89   0.0000       0.415148        11.2968 
  90   0.0000       0.422013        11.4836 
  91   0.0000       0.422845        11.5062 
  92   0.0000       0.444150        12.0859 
  93   0.0000       0.445409        12.1202 
  94   0.0000       0.470110        12.7923 
  95   0.0000       0.474005        12.8983 
  96   0.0000       0.485677        13.2159 
  97   0.0000       0.501177        13.6377 
  98   0.0000       0.514999        14.0138 
  99   0.0000       0.517822        14.0907 
 100   0.0000       0.520602        14.1663 
 101   0.0000       0.525298        14.2941 
 102   0.0000       0.530129        14.4255 
 103   0.0000       0.530511        14.4359 
 104   0.0000       0.538633        14.6569 
 105   0.0000       0.561461        15.2781 
 106   0.0000       0.565584        15.3903 
 107   0.0000       0.565912        15.3993 
 108   0.0000       0.572932        15.5903 
 109   0.0000       0.587874        15.9969 
 110   0.0000       0.588909        16.0250 
 111   0.0000       0.592815        16.1313 
 112   0.0000       0.598565        16.2878 
 113   0.0000       0.619826        16.8663 
 114   0.0000       0.639431        17.3998 
 115   0.0000       0.639582        17.4039 
 116   0.0000       0.652859        17.7652 
 117   0.0000       0.653819        17.7913 
 118   0.0000       0.682473        18.5710 
 119   0.0000       0.692327        18.8392 
 120   0.0000       0.715713        19.4755 
 121   0.0000       0.715990        19.4831 
 122   0.0000       0.723213        19.6796 
 123   0.0000       0.724780        19.7223 
 124   0.0000       0.729367        19.8471 
 125   0.0000       0.737651        20.0725 
 126   0.0000       0.741700        20.1827 
 127   0.0000       0.750776        20.4296 
 128   0.0000       0.758136        20.6299 
 129   0.0000       0.758973        20.6527 
 130   0.0000       0.761725        20.7276 
 131   0.0000       0.764731        20.8094 
 132   0.0000       0.769940        20.9511 
 133   0.0000       0.787211        21.4211 
 134   0.0000       0.791683        21.5428 
 135   0.0000       0.795408        21.6441 
 136   0.0000       0.801754        21.8168 
 137   0.0000       0.802452        21.8358 
 138   0.0000       0.805878        21.9291 
 139   0.0000       0.809530        22.0284 
 140   0.0000       0.813888        22.1470 
 141   0.0000       0.814754        22.1706 
 142   0.0000       0.826696        22.4956 
 143   0.0000       0.832675        22.6582 
 144   0.0000       0.833946        22.6928 
 145   0.0000       0.834064        22.6960 
 146   0.0000       0.848123        23.0786 
 147   0.0000       0.864068        23.5125 
 148   0.0000       0.867288        23.6001 
 149   0.0000       0.872324        23.7371 
 150   0.0000       0.876140        23.8410 
 151   0.0000       0.876752        23.8576 
 152   0.0000       0.878817        23.9138 
 153   0.0000       0.898697        24.4548 
 154   0.0000       0.908287        24.7158 
 155   0.0000       0.919198        25.0126 
 156   0.0000       0.925368        25.1806 
 157   0.0000       0.926823        25.2201 
 158   0.0000       0.950409        25.8619 
 159   0.0000       0.958576        26.0842 
 160   0.0000       0.967550        26.3284 
 161   0.0000       0.977791        26.6071 
 162   0.0000       1.001931        27.2639 
 163   0.0000       1.055339        28.7172 
 164   0.0000       1.064787        28.9743 
 165   0.0000       1.092479        29.7279 
 166   0.0000       1.108022        30.1508 
 167   0.0000       1.178703        32.0741 
 168   0.0000       1.191852        32.4319 
 169   0.0000       1.213180        33.0123 
 170   0.0000       1.245424        33.8897 
 171   0.0000       1.254769        34.1440 
 172   0.0000       1.265834        34.4451 
 173   0.0000       1.299535        35.3621 
 174   0.0000       1.302138        35.4330 
 175   0.0000       1.320003        35.9191 
 176   0.0000       1.336148        36.3584 
 177   0.0000       1.340794        36.4849 
 178   0.0000       1.344239        36.5786 
 179   0.0000       1.353128        36.8205 
 180   0.0000       1.353765        36.8378 
 181   0.0000       1.359610        36.9969 
 182   0.0000       1.387698        37.7612 
 183   0.0000       1.406946        38.2849 
 184   0.0000       1.413350        38.4592 
 185   0.0000       1.425385        38.7867 
 186   0.0000       1.482135        40.3309 
 187   0.0000       1.503024        40.8994 
 188   0.0000       1.511459        41.1289 
 189   0.0000       1.581592        43.0373 
 190   0.0000       1.590154        43.2703 
 191   0.0000       1.606356        43.7112 
 192   0.0000       1.635253        44.4975 
 193   0.0000       1.638229        44.5785 
 194   0.0000       1.651645        44.9436 
 195   0.0000       1.652449        44.9654 
 196   0.0000       1.652704        44.9724 
 197   0.0000       1.661604        45.2145 
 198   0.0000       1.671129        45.4737 
 199   0.0000       1.679385        45.6984 
 200   0.0000       1.700215        46.2652 
 201   0.0000       1.749136        47.5964 
 202   0.0000       1.772689        48.2373 
 203   0.0000       1.775990        48.3271 
 204   0.0000       1.793725        48.8097 
 205   0.0000       1.794639        48.8346 
 206   0.0000       1.810102        49.2554 
 207   0.0000       1.812062        49.3087 
 208   0.0000       1.825915        49.6857 
 209   0.0000       1.842265        50.1306 
 210   0.0000       1.844178        50.1826 
 211   0.0000       1.845769        50.2259 
 212   0.0000       1.852260        50.4026 
 213   0.0000       1.864668        50.7402 
 214   0.0000       1.872171        50.9444 
 215   0.0000       1.877339        51.0850 
 216   0.0000       1.891942        51.4823 
 217   0.0000       1.901587        51.7448 
 218   0.0000       1.905693        51.8565 
 219   0.0000       1.925784        52.4032 
 220   0.0000       1.928438        52.4755 
 221   0.0000       1.929048        52.4921 
 222   0.0000       1.943534        52.8862 
 223   0.0000       1.950854        53.0854 
 224   0.0000       1.957119        53.2559 
 225   0.0000       1.962611        53.4054 
 226   0.0000       1.974017        53.7157 
 227   0.0000       1.976413        53.7809 
 228   0.0000       1.981308        53.9141 
 229   0.0000       1.989455        54.1358 
 230   0.0000       2.005133        54.5624 
 231   0.0000       2.018671        54.9308 
 232   0.0000       2.031083        55.2686 
 233   0.0000       2.034444        55.3600 
 234   0.0000       2.042816        55.5878 
 235   0.0000       2.060349        56.0650 
 236   0.0000       2.088913        56.8422 
 237   0.0000       2.091872        56.9227 
 238   0.0000       2.096910        57.0598 
 239   0.0000       2.109802        57.4106 
 240   0.0000       2.128563        57.9212 
 241   0.0000       2.134671        58.0874 
 242   0.0000       2.158849        58.7453 
 243   0.0000       2.179442        59.3056 
 244   0.0000       2.189434        59.5775 
 245   0.0000       2.195628        59.7461 
 246   0.0000       2.205524        60.0154 
 247   0.0000       2.209819        60.1322 
 248   0.0000       2.218779        60.3761 
 249   0.0000       2.245491        61.1029 
 250   0.0000       2.254527        61.3488 
 251   0.0000       2.263267        61.5866 
 252   0.0000       2.298387        62.5423 
 253   0.0000       2.319284        63.1109 
 254   0.0000       2.324436        63.2511 
 255   0.0000       2.335114        63.5417 
 256   0.0000       2.342796        63.7507 
 257   0.0000       2.361685        64.2647 
 258   0.0000       2.379575        64.7515 
 259   0.0000       2.387967        64.9799 
 260   0.0000       2.404337        65.4253 
 261   0.0000       2.429340        66.1057 
 262   0.0000       2.434474        66.2454 
 263   0.0000       2.446136        66.5628 
 264   0.0000       2.461806        66.9891 
 265   0.0000       2.462477        67.0074 
 266   0.0000       2.479013        67.4574 
 267   0.0000       2.495572        67.9080 
 268   0.0000       2.526052        68.7374 
 269   0.0000       2.539810        69.1117 
 270   0.0000       2.549612        69.3785 
 271   0.0000       2.557762        69.6002 
 272   0.0000       2.614269        71.1379 
 273   0.0000       2.623478        71.3885 
 274   0.0000       2.626957        71.4831 
 275   0.0000       2.650858        72.1335 
 276   0.0000       2.651479        72.1504 
 277   0.0000       2.671013        72.6820 
 278   0.0000       2.689872        73.1951 
 279   0.0000       2.709013        73.7160 
 280   0.0000       2.741433        74.5982 
 281   0.0000       2.744225        74.6742 
 282   0.0000       2.752006        74.8859 
 283   0.0000       2.774270        75.4917 
 284   0.0000       2.776662        75.5568 
 285   0.0000       2.800010        76.1922 
 286   0.0000       2.813040        76.5467 
 287   0.0000       2.827897        76.9510 
 288   0.0000       2.855039        77.6896 
 289   0.0000       2.867484        78.0282 
 290   0.0000       2.875332        78.2418 
 291   0.0000       2.881025        78.3967 
 292   0.0000       2.960588        80.5617 
 293   0.0000       2.997112        81.5556 
 294   0.0000       3.005861        81.7936 
 295   0.0000       3.008504        81.8656 
 296   0.0000       3.021644        82.2231 
 297   0.0000       3.040827        82.7451 
 298   0.0000       3.041911        82.7746 
 299   0.0000       3.059799        83.2614 
 300   0.0000       3.092430        84.1493 
 301   0.0000       3.093181        84.1697 
 302   0.0000       3.094926        84.2172 
 303   0.0000       3.101479        84.3955 
 304   0.0000       3.147592        85.6503 
 305   0.0000       3.155793        85.8735 
 306   0.0000       3.184959        86.6671 
 307   0.0000       3.189411        86.7883 
 308   0.0000       3.228272        87.8458 
 309   0.0000       3.257613        88.6442 
 310   0.0000       3.371486        91.7428 
 311   0.0000       3.402506        92.5869 
 312   0.0000       3.640096        99.0521 
 313   0.0000       3.787723       103.0692 

                    ********************************
                    * MULLIKEN POPULATION ANALYSIS *
                    ********************************

-----------------------
MULLIKEN ATOMIC CHARGES
-----------------------
   0 C :    0.073962
   1 C :   -0.120191
   2 C :   -0.083131
   3 C :   -0.120118
   4 C :   -0.140408
   5 C :   -0.018471
   6 C :   -0.140395
   7 C :    0.094601
   8 H :    0.031151
   9 H :    0.049634
  10 H :    0.030882
  11 C :   -0.158576
  12 C :    0.016815
  13 C :   -0.006020
  14 C :   -0.012149
  15 C :   -0.006022
  16 C :    0.016796
  17 H :    0.004079
  18 H :    0.012203
  19 H :    0.012151
  20 H :    0.012204
  21 H :    0.004107
  22 C :    0.094668
  23 H :    0.031033
  24 H :    0.030993
  25 H :    0.049622
  26 C :    0.073902
  27 H :    0.036505
  28 H :    0.024463
  29 H :    0.036601
  30 H :   -0.028464
  31 H :    0.036697
  32 H :    0.024454
  33 H :    0.036420
Sum of atomic charges:   -0.0000000

--------------------------------
MULLIKEN REDUCED ORBITAL CHARGES
--------------------------------
  0 C s       :     2.897912  s :     2.897912
      pz      :     1.022022  p :     2.999996
      px      :     0.993625
      py      :     0.984349
      dz2     :     0.005211  d :     0.028131
      dxz     :     0.001834
      dyz     :     0.008959
      dx2y2   :     0.006933
      dxy     :     0.005193
  1 C s       :     3.089426  s :     3.089426
      pz      :     0.989262  p :     2.986624
      px      :     1.041296
      py      :     0.956066
      dz2     :     0.002997  d :     0.044141
      dxz     :     0.006526
      dyz     :     0.007026
      dx2y2   :     0.013970
      dxy     :     0.013622
  2 C s       :     3.270887  s :     3.270887
      pz      :     1.017985  p :     2.776789
      px      :     0.824869
      py      :     0.933935
      dz2     :     0.002569  d :     0.035456
      dxz     :     0.002270
      dyz     :     0.007331
      dx2y2   :     0.012890
      dxy     :     0.010396
  3 C s       :     3.089397  s :     3.089397
      pz      :     0.989274  p :     2.986576
      px      :     1.041247
      py      :     0.956055
      dz2     :     0.002997  d :     0.044145
      dxz     :     0.006528
      dyz     :     0.007025
      dx2y2   :     0.013970
      dxy     :     0.013624
  4 C s       :     3.098820  s :     3.098820
      pz      :     1.000624  p :     2.997973
      px      :     0.988955
      py      :     1.008393
      dz2     :     0.003003  d :     0.043616
      dxz     :     0.006352
      dyz     :     0.007012
      dx2y2   :     0.013991
      dxy     :     0.013257
  5 C s       :     3.116177  s :     3.116177
      pz      :     1.015779  p :     2.859919
      px      :     0.884595
      py      :     0.959546
      dz2     :     0.003111  d :     0.042374
      dxz     :     0.004901
      dyz     :     0.007470
      dx2y2   :     0.013721
      dxy     :     0.013172
  6 C s       :     3.098844  s :     3.098844
      pz      :     1.000626  p :     2.997935
      px      :     0.988927
      py      :     1.008382
      dz2     :     0.003003  d :     0.043616
      dxz     :     0.006351
      dyz     :     0.007014
      dx2y2   :     0.013991
      dxy     :     0.013257
  7 C s       :     2.871003  s :     2.871003
      pz      :     1.014050  p :     3.006437
      px      :     1.014069
      py      :     0.978318
      dz2     :     0.005167  d :     0.027958
      dxz     :     0.002037
      dyz     :     0.008734
      dx2y2   :     0.006929
      dxy     :     0.005092
  8 H s       :     0.944714  s :     0.944714
      pz      :     0.011445  p :     0.024135
      px      :     0.005458
      py      :     0.007233
  9 H s       :     0.925554  s :     0.925554
      pz      :     0.005030  p :     0.024812
      px      :     0.015135
      py      :     0.004646
 10 H s       :     0.944988  s :     0.944988
      pz      :     0.011397  p :     0.024130
      px      :     0.005483
      py      :     0.007250
 11 C s       :     3.093634  s :     3.093634
      pz      :     1.008814  p :     3.020431
      px      :     1.017048
      py      :     0.994569
      dz2     :     0.011260  d :     0.044511
      dxz     :     0.014466
      dyz     :     0.007014
      dx2y2   :     0.006298
      dxy     :     0.005472
 12 C s       :     3.196243  s :     3.196243
      pz      :     0.887054  p :     2.751540
      px      :     0.878478
      py      :     0.986008
      dz2     :     0.008606  d :     0.035402
      dxz     :     0.012522
      dyz     :     0.003515
      dx2y2   :     0.005067
      dxy     :     0.005693
 13 C s       :     3.147053  s :     3.147053
      pz      :     0.896499  p :     2.822681
      px      :     0.944416
      py      :     0.981765
      dz2     :     0.008868  d :     0.036286
      dxz     :     0.012693
      dyz     :     0.003660
      dx2y2   :     0.005006
      dxy     :     0.006059
 14 C s       :     3.141672  s :     3.141672
      pz      :     0.965937  p :     2.834563
      px      :     0.874589
      py      :     0.994037
      dz2     :     0.011151  d :     0.035914
      dxz     :     0.010724
      dyz     :     0.006824
      dx2y2   :     0.004672
      dxy     :     0.002542
 15 C s       :     3.147072  s :     3.147072
      pz      :     0.896532  p :     2.822666
      px      :     0.944355
      py      :     0.981778
      dz2     :     0.008866  d :     0.036285
      dxz     :     0.012695
      dyz     :     0.003662
      dx2y2   :     0.005005
      dxy     :     0.006057
 16 C s       :     3.196275  s :     3.196275
      pz      :     0.886974  p :     2.751528
      px      :     0.878532
      py      :     0.986023
      dz2     :     0.008606  d :     0.035401
      dxz     :     0.012520
      dyz     :     0.003513
      dx2y2   :     0.005067
      dxy     :     0.005695
 17 H s       :     0.972706  s :     0.972706
      pz      :     0.011992  p :     0.023215
      px      :     0.006580
      py      :     0.004642
 18 H s       :     0.964728  s :     0.964728
      pz      :     0.012108  p :     0.023069
      px      :     0.006329
      py      :     0.004632
 19 H s       :     0.964443  s :     0.964443
      pz      :     0.003308  p :     0.023405
      px      :     0.015381
      py      :     0.004717
 20 H s       :     0.964728  s :     0.964728
      pz      :     0.012114  p :     0.023068
      px      :     0.006322
      py      :     0.004632
 21 H s       :     0.972680  s :     0.972680
      pz      :     0.011986  p :     0.023213
      px      :     0.006586
      py      :     0.004641
 22 C s       :     2.870969  s :     2.870969
      pz      :     1.014056  p :     3.006406
      px      :     1.014052
      py      :     0.978299
      dz2     :     0.005167  d :     0.027957
      dxz     :     0.002036
      dyz     :     0.008734
      dx2y2   :     0.006928
      dxy     :     0.005092
 23 H s       :     0.944834  s :     0.944834
      pz      :     0.011417  p :     0.024132
      px      :     0.005468
      py      :     0.007247
 24 H s       :     0.944874  s :     0.944874
      pz      :     0.011424  p :     0.024133
      px      :     0.005472
      py      :     0.007236
 25 H s       :     0.925563  s :     0.925563
      pz      :     0.005031  p :     0.024815
      px      :     0.015136
      py      :     0.004648
 26 C s       :     2.897956  s :     2.897956
      pz      :     1.022026  p :     3.000011
      px      :     0.993628
      py      :     0.984357
      dz2     :     0.005210  d :     0.028131
      dxz     :     0.001835
      dyz     :     0.008960
      dx2y2   :     0.006935
      dxy     :     0.005191
 27 H s       :     0.939384  s :     0.939384
      pz      :     0.011434  p :     0.024110
      px      :     0.005302
      py      :     0.007374
 28 H s       :     0.951915  s :     0.951915
      pz      :     0.005049  p :     0.023622
      px      :     0.014040
      py      :     0.004532
 29 H s       :     0.939289  s :     0.939289
      pz      :     0.011465  p :     0.024110
      px      :     0.005298
      py      :     0.007347
 30 H s       :     1.004921  s :     1.004921
      pz      :     0.004892  p :     0.023543
      px      :     0.015336
      py      :     0.003315
 31 H s       :     0.939189  s :     0.939189
      pz      :     0.011483  p :     0.024114
      px      :     0.005292
      py      :     0.007339
 32 H s       :     0.951923  s :     0.951923
      pz      :     0.005050  p :     0.023624
      px      :     0.014039
      py      :     0.004534
 33 H s       :     0.939472  s :     0.939472
      pz      :     0.011416  p :     0.024108
      px      :     0.005308
      py      :     0.007383


                     *******************************
                     * LOEWDIN POPULATION ANALYSIS *
                     *******************************

----------------------
LOEWDIN ATOMIC CHARGES
----------------------
   0 C :   -0.050185
   1 C :   -0.035134
   2 C :   -0.039951
   3 C :   -0.035156
   4 C :   -0.030679
   5 C :   -0.030674
   6 C :   -0.030691
   7 C :   -0.052239
   8 H :    0.033577
   9 H :    0.033885
  10 H :    0.033490
  11 C :   -0.022962
  12 C :   -0.024703
  13 C :   -0.026271
  14 C :   -0.034756
  15 C :   -0.026272
  16 C :   -0.024713
  17 H :    0.030790
  18 H :    0.030143
  19 H :    0.028740
  20 H :    0.030147
  21 H :    0.030806
  22 C :   -0.052226
  23 H :    0.033540
  24 H :    0.033532
  25 H :    0.033870
  26 C :   -0.050190
  27 H :    0.033928
  28 H :    0.028970
  29 H :    0.033966
  30 H :    0.020552
  31 H :    0.033989
  32 H :    0.028968
  33 H :    0.033909

-------------------------------
LOEWDIN REDUCED ORBITAL CHARGES
-------------------------------
  0 C s       :     2.819868  s :     2.819868
      pz      :     1.068651  p :     3.156507
      px      :     1.051533
      py      :     1.036324
      dz2     :     0.014120  d :     0.073809
      dxz     :     0.003971
      dyz     :     0.023038
      dx2y2   :     0.018436
      dxy     :     0.014244
  1 C s       :     2.842227  s :     2.842227
      pz      :     0.966446  p :     3.082323
      px      :     1.067145
      py      :     1.048732
      dz2     :     0.007142  d :     0.110584
      dxz     :     0.013542
      dyz     :     0.012838
      dx2y2   :     0.038241
      dxy     :     0.038822
  2 C s       :     2.848070  s :     2.848070
      pz      :     1.001946  p :     3.096989
      px      :     1.034363
      py      :     1.060680
      dz2     :     0.006248  d :     0.094892
      dxz     :     0.003920
      dyz     :     0.015761
      dx2y2   :     0.038389
      dxy     :     0.030574
  3 C s       :     2.842195  s :     2.842195
      pz      :     0.966454  p :     3.082359
      px      :     1.067182
      py      :     1.048723
      dz2     :     0.007143  d :     0.110602
      dxz     :     0.013548
      dyz     :     0.012837
      dx2y2   :     0.038242
      dxy     :     0.038831
  4 C s       :     2.841619  s :     2.841619
      pz      :     0.978134  p :     3.079018
      px      :     1.059115
      py      :     1.041769
      dz2     :     0.007110  d :     0.110042
      dxz     :     0.013007
      dyz     :     0.012958
      dx2y2   :     0.038522
      dxy     :     0.038444
  5 C s       :     2.837735  s :     2.837735
      pz      :     0.986453  p :     3.081766
      px      :     1.022421
      py      :     1.072892
      dz2     :     0.007444  d :     0.111173
      dxz     :     0.010284
      dyz     :     0.015672
      dx2y2   :     0.040743
      dxy     :     0.037029
  6 C s       :     2.841616  s :     2.841616
      pz      :     0.978129  p :     3.079029
      px      :     1.059105
      py      :     1.041795
      dz2     :     0.007110  d :     0.110046
      dxz     :     0.013005
      dyz     :     0.012961
      dx2y2   :     0.038526
      dxy     :     0.038443
  7 C s       :     2.818140  s :     2.818140
      pz      :     1.067535  p :     3.160883
      px      :     1.061555
      py      :     1.031793
      dz2     :     0.014067  d :     0.073216
      dxz     :     0.004479
      dyz     :     0.022471
      dx2y2   :     0.018430
      dxy     :     0.013768
  8 H s       :     0.899252  s :     0.899252
      pz      :     0.030984  p :     0.067171
      px      :     0.015066
      py      :     0.021121
  9 H s       :     0.895998  s :     0.895998
      pz      :     0.013153  p :     0.070117
      px      :     0.042534
      py      :     0.014430
 10 H s       :     0.899329  s :     0.899329
      pz      :     0.030847  p :     0.067181
      px      :     0.015157
      py      :     0.021178
 11 C s       :     2.843438  s :     2.843438
      pz      :     1.088858  p :     3.067206
      px      :     1.037629
      py      :     0.940719
      dz2     :     0.032004  d :     0.112318
      dxz     :     0.039294
      dyz     :     0.014514
      dx2y2   :     0.015615
      dxy     :     0.010892
 12 C s       :     2.851867  s :     2.851867
      pz      :     1.046238  p :     3.079073
      px      :     1.057912
      py      :     0.974923
      dz2     :     0.024483  d :     0.093764
      dxz     :     0.036282
      dyz     :     0.006927
      dx2y2   :     0.014256
      dxy     :     0.011816
 13 C s       :     2.851517  s :     2.851517
      pz      :     1.051275  p :     3.080674
      px      :     1.067415
      py      :     0.961984
      dz2     :     0.024887  d :     0.094080
      dxz     :     0.035839
      dyz     :     0.006832
      dx2y2   :     0.013949
      dxy     :     0.012573
 14 C s       :     2.850979  s :     2.850979
      pz      :     1.072802  p :     3.090483
      px      :     1.043182
      py      :     0.974500
      dz2     :     0.031871  d :     0.093294
      dxz     :     0.031196
      dyz     :     0.014360
      dx2y2   :     0.011683
      dxy     :     0.004184
 15 C s       :     2.851524  s :     2.851524
      pz      :     1.051283  p :     3.080672
      px      :     1.067395
      py      :     0.961995
      dz2     :     0.024882  d :     0.094075
      dxz     :     0.035844
      dyz     :     0.006836
      dx2y2   :     0.013945
      dxy     :     0.012568
 16 C s       :     2.851863  s :     2.851863
      pz      :     1.046233  p :     3.079089
      px      :     1.057925
      py      :     0.974932
      dz2     :     0.024484  d :     0.093761
      dxz     :     0.036277
      dyz     :     0.006922
      dx2y2   :     0.014258
      dxy     :     0.011820
 17 H s       :     0.900149  s :     0.900149
      pz      :     0.034736  p :     0.069061
      px      :     0.019560
      py      :     0.014764
 18 H s       :     0.901297  s :     0.901297
      pz      :     0.034699  p :     0.068560
      px      :     0.019431
      py      :     0.014430
 19 H s       :     0.902307  s :     0.902307
      pz      :     0.011789  p :     0.068953
      px      :     0.042339
      py      :     0.014825
 20 H s       :     0.901296  s :     0.901296
      pz      :     0.034712  p :     0.068557
      px      :     0.019416
      py      :     0.014429
 21 H s       :     0.900148  s :     0.900148
      pz      :     0.034717  p :     0.069047
      px      :     0.019570
      py      :     0.014759
 22 C s       :     2.818134  s :     2.818134
      pz      :     1.067537  p :     3.160880
      px      :     1.061557
      py      :     1.031786
      dz2     :     0.014067  d :     0.073212
      dxz     :     0.004477
      dyz     :     0.022470
      dx2y2   :     0.018426
      dxy     :     0.013771
 23 H s       :     0.899286  s :     0.899286
      pz      :     0.030905  p :     0.067174
      px      :     0.015103
      py      :     0.021166
 24 H s       :     0.899293  s :     0.899293
      pz      :     0.030924  p :     0.067175
      px      :     0.015117
      py      :     0.021134
 25 H s       :     0.896000  s :     0.896000
      pz      :     0.013157  p :     0.070131
      px      :     0.042537
      py      :     0.014436
 26 C s       :     2.819880  s :     2.819880
      pz      :     1.068653  p :     3.156501
      px      :     1.051529
      py      :     1.036319
      dz2     :     0.014118  d :     0.073809
      dxz     :     0.003972
      dyz     :     0.023039
      dx2y2   :     0.018442
      dxy     :     0.014238
 27 H s       :     0.899036  s :     0.899036
      pz      :     0.031044  p :     0.067036
      px      :     0.014397
      py      :     0.021594
 28 H s       :     0.904683  s :     0.904683
      pz      :     0.013060  p :     0.066346
      px      :     0.039749
      py      :     0.013538
 29 H s       :     0.899013  s :     0.899013
      pz      :     0.031131  p :     0.067021
      px      :     0.014378
      py      :     0.021512
 30 H s       :     0.910532  s :     0.910532
      pz      :     0.015588  p :     0.068916
      px      :     0.042215
      py      :     0.011113
 31 H s       :     0.898989  s :     0.898989
      pz      :     0.031186  p :     0.067023
      px      :     0.014354
      py      :     0.021483
 32 H s       :     0.904679  s :     0.904679
      pz      :     0.013061  p :     0.066353
      px      :     0.039748
      py      :     0.013543
 33 H s       :     0.899053  s :     0.899053
      pz      :     0.030993  p :     0.067038
      px      :     0.014421
      py      :     0.021624


                      *****************************
                      * MAYER POPULATION ANALYSIS *
                      *****************************

  NA   - Mulliken gross atomic population
  ZA   - Total nuclear charge
  QA   - Mulliken gross atomic charge
  VA   - Mayer's total valence
  BVA  - Mayer's bonded valence
  FA   - Mayer's free valence

  ATOM       NA         ZA         QA         VA         BVA        FA
  0 C      5.9260     6.0000     0.0740     3.9337     3.9337     0.0000
  1 C      6.1202     6.0000    -0.1202     4.0060     4.0060    -0.0000
  2 C      6.0831     6.0000    -0.0831     3.8866     3.8866     0.0000
  3 C      6.1201     6.0000    -0.1201     4.0060     4.0060     0.0000
  4 C      6.1404     6.0000    -0.1404     4.0950     4.0950    -0.0000
  5 C      6.0185     6.0000    -0.0185     3.8918     3.8918     0.0000
  6 C      6.1404     6.0000    -0.1404     4.0950     4.0950    -0.0000
  7 C      5.9054     6.0000     0.0946     3.9258     3.9258    -0.0000
  8 H      0.9688     1.0000     0.0312     0.9941     0.9941    -0.0000
  9 H      0.9504     1.0000     0.0496     0.9986     0.9986     0.0000
 10 H      0.9691     1.0000     0.0309     0.9941     0.9941     0.0000
 11 C      6.1586     6.0000    -0.1586     3.9069     3.9069     0.0000
 12 C      5.9832     6.0000     0.0168     3.8754     3.8754    -0.0000
 13 C      6.0060     6.0000    -0.0060     3.8556     3.8556    -0.0000
 14 C      6.0121     6.0000    -0.0121     3.8490     3.8490     0.0000
 15 C      6.0060     6.0000    -0.0060     3.8556     3.8556    -0.0000
 16 C      5.9832     6.0000     0.0168     3.8754     3.8754     0.0000
 17 H      0.9959     1.0000     0.0041     0.9940     0.9940     0.0000
 18 H      0.9878     1.0000     0.0122     0.9838     0.9838    -0.0000
 19 H      0.9878     1.0000     0.0122     0.9842     0.9842     0.0000
 20 H      0.9878     1.0000     0.0122     0.9838     0.9838    -0.0000
[...]
      px      :     0.006357
      py      :     0.004465
 22 C s       :     2.900108  s :     2.900108
      pz      :     1.015818  p :     3.004408
      px      :     1.014659
      py      :     0.973930
      dz2     :     0.004933  d :     0.027282
      dxz     :     0.001929
      dyz     :     0.008621
      dx2y2   :     0.006952
      dxy     :     0.004847
 23 H s       :     0.940796  s :     0.940796
      pz      :     0.011135  p :     0.023456
      px      :     0.005294
      py      :     0.007027
 24 H s       :     0.940847  s :     0.940847
      pz      :     0.011141  p :     0.023457
      px      :     0.005301
      py      :     0.007015
 25 H s       :     0.923163  s :     0.923163
      pz      :     0.004925  p :     0.024161
      px      :     0.014960
      py      :     0.004277
 26 C s       :     2.926003  s :     2.926003
      pz      :     1.023555  p :     2.997283
      px      :     0.993166
      py      :     0.980563
      dz2     :     0.004978  d :     0.027416
      dxz     :     0.001662
      dyz     :     0.008907
      dx2y2   :     0.006822
      dxy     :     0.005047
 27 H s       :     0.935728  s :     0.935728
      pz      :     0.011149  p :     0.023415
      px      :     0.005058
      py      :     0.007209
 28 H s       :     0.947523  s :     0.947523
      pz      :     0.004921  p :     0.023019
      px      :     0.013802
      py      :     0.004297
 29 H s       :     0.935682  s :     0.935682
      pz      :     0.011175  p :     0.023416
      px      :     0.005056
      py      :     0.007186
 30 H s       :     0.995635  s :     0.995635
      pz      :     0.004685  p :     0.022924
      px      :     0.015107
      py      :     0.003132
 31 H s       :     0.935632  s :     0.935632
      pz      :     0.011183  p :     0.023418
      px      :     0.005053
      py      :     0.007182
 32 H s       :     0.947523  s :     0.947523
      pz      :     0.004921  p :     0.023019
      px      :     0.013801
      py      :     0.004297
 33 H s       :     0.935777  s :     0.935777
      pz      :     0.011140  p :     0.023414
      px      :     0.005059
      py      :     0.007214


                     *******************************
                     * LOEWDIN POPULATION ANALYSIS *
                     *******************************

----------------------
LOEWDIN ATOMIC CHARGES
----------------------
   0 C :   -0.055605
   1 C :   -0.035649
   2 C :   -0.040436
   3 C :   -0.035649
   4 C :   -0.029629
   5 C :   -0.029744
   6 C :   -0.029629
   7 C :   -0.057724
   8 H :    0.035237
   9 H :    0.035097
  10 H :    0.035180
  11 C :   -0.023188
  12 C :   -0.026942
  13 C :   -0.029874
  14 C :   -0.036799
  15 C :   -0.029878
  16 C :   -0.026947
  17 H :    0.033390
  18 H :    0.032762
  19 H :    0.031428
  20 H :    0.032762
  21 H :    0.033388
  22 C :   -0.057724
  23 H :    0.035217
  24 H :    0.035201
  25 H :    0.035097
  26 C :   -0.055605
  27 H :    0.035406
  28 H :    0.030651
  29 H :    0.035414
  30 H :    0.023325
  31 H :    0.035424
  32 H :    0.030651
  33 H :    0.035395

-------------------------------
LOEWDIN REDUCED ORBITAL CHARGES
-------------------------------
  0 C s       :     2.830502  s :     2.830502
      pz      :     1.068894  p :     3.153553
      px      :     1.050804
      py      :     1.033855
      dz2     :     0.013401  d :     0.071550
      dxz     :     0.003540
      dyz     :     0.022803
      dx2y2   :     0.018015
      dxy     :     0.013790
  1 C s       :     2.848572  s :     2.848572
      pz      :     0.967564  p :     3.079852
      px      :     1.064705
      py      :     1.047582
      dz2     :     0.007002  d :     0.107226
      dxz     :     0.012978
      dyz     :     0.012315
      dx2y2   :     0.037262
      dxy     :     0.037669
  2 C s       :     2.855807  s :     2.855807
      pz      :     1.000776  p :     3.092591
      px      :     1.033045
      py      :     1.058770
      dz2     :     0.006089  d :     0.092038
      dxz     :     0.003763
      dyz     :     0.015338
      dx2y2   :     0.037101
      dxy     :     0.029747
  3 C s       :     2.848572  s :     2.848572
      pz      :     0.967564  p :     3.079851
      px      :     1.064711
      py      :     1.047576
      dz2     :     0.007002  d :     0.107226
      dxz     :     0.012978
      dyz     :     0.012315
      dx2y2   :     0.037262
      dxy     :     0.037669
  4 C s       :     2.849206  s :     2.849206
      pz      :     0.977655  p :     3.074321
      px      :     1.056944
      py      :     1.039722
      dz2     :     0.006928  d :     0.106103
      dxz     :     0.012445
      dyz     :     0.012389
      dx2y2   :     0.037497
      dxy     :     0.036844
  5 C s       :     2.846269  s :     2.846269
      pz      :     0.989273  p :     3.077122
      px      :     1.019075
      py      :     1.068774
      dz2     :     0.007193  d :     0.106353
      dxz     :     0.009579
      dyz     :     0.014895
      dx2y2   :     0.038964
      dxy     :     0.035723
  6 C s       :     2.849206  s :     2.849206
      pz      :     0.977655  p :     3.074320
      px      :     1.056946
      py      :     1.039719
      dz2     :     0.006928  d :     0.106103
      dxz     :     0.012445
      dyz     :     0.012389
      dx2y2   :     0.037497
      dxy     :     0.036844
  7 C s       :     2.828441  s :     2.828441
      pz      :     1.067623  p :     3.158291
      px      :     1.061814
      py      :     1.028854
      dz2     :     0.013380  d :     0.070992
      dxz     :     0.004217
      dyz     :     0.022031
      dx2y2   :     0.018360
      dxy     :     0.013004
  8 H s       :     0.899589  s :     0.899589
      pz      :     0.030257  p :     0.065174
      px      :     0.014410
      py      :     0.020507
  9 H s       :     0.896760  s :     0.896760
      pz      :     0.012744  p :     0.068143
      px      :     0.042129
      py      :     0.013270
 10 H s       :     0.899641  s :     0.899641
      pz      :     0.030188  p :     0.065179
      px      :     0.014467
      py      :     0.020525
 11 C s       :     2.850590  s :     2.850590
      pz      :     1.086692  p :     3.064154
      px      :     1.034628
      py      :     0.942834
      dz2     :     0.030854  d :     0.108444
      dxz     :     0.038437
      dyz     :     0.013914
      dx2y2   :     0.014971
      dxy     :     0.010269
 12 C s       :     2.860215  s :     2.860215
      pz      :     1.044939  p :     3.076063
      px      :     1.055926
      py      :     0.975198
      dz2     :     0.023700  d :     0.090664
      dxz     :     0.034962
      dyz     :     0.006661
      dx2y2   :     0.013888
      dxy     :     0.011452
 13 C s       :     2.859623  s :     2.859623
      pz      :     1.049612  p :     3.079323
      px      :     1.065014
      py      :     0.964696
      dz2     :     0.024146  d :     0.090928
      dxz     :     0.034514
      dyz     :     0.006594
      dx2y2   :     0.013628
      dxy     :     0.012046
 14 C s       :     2.859096  s :     2.859096
      pz      :     1.070977  p :     3.087291
      px      :     1.041788
      py      :     0.974525
      dz2     :     0.030764  d :     0.090412
      dxz     :     0.030515
      dyz     :     0.013908
      dx2y2   :     0.011151
      dxy     :     0.004074
 15 C s       :     2.859624  s :     2.859624
      pz      :     1.049611  p :     3.079326
      px      :     1.065018
      py      :     0.964698
      dz2     :     0.024146  d :     0.090928
      dxz     :     0.034513
      dyz     :     0.006594
      dx2y2   :     0.013628
      dxy     :     0.012047
 16 C s       :     2.860217  s :     2.860217
      pz      :     1.044940  p :     3.076066
      px      :     1.055926
      py      :     0.975200
      dz2     :     0.023700  d :     0.090664
      dxz     :     0.034963
      dyz     :     0.006662
      dx2y2   :     0.013888
      dxy     :     0.011452
 17 H s       :     0.899646  s :     0.899646
      pz      :     0.034138  p :     0.066964
      px      :     0.018813
      py      :     0.014012
 18 H s       :     0.900653  s :     0.900653
      pz      :     0.034176  p :     0.066585
      px      :     0.018615
      py      :     0.013794
 19 H s       :     0.901663  s :     0.901663
      pz      :     0.010998  p :     0.066910
      px      :     0.041838
      py      :     0.014073
 20 H s       :     0.900653  s :     0.900653
      pz      :     0.034174  p :     0.066585
      px      :     0.018617
      py      :     0.013794
 21 H s       :     0.899648  s :     0.899648
      pz      :     0.034140  p :     0.066964
      px      :     0.018811
      py      :     0.014012
 22 C s       :     2.828441  s :     2.828441
      pz      :     1.067622  p :     3.158291
      px      :     1.061810
      py      :     1.028859
      dz2     :     0.013380  d :     0.070992
      dxz     :     0.004216
      dyz     :     0.022032
      dx2y2   :     0.018358
      dxy     :     0.013006
 23 H s       :     0.899607  s :     0.899607
      pz      :     0.030216  p :     0.065176
      px      :     0.014425
      py      :     0.020534
 24 H s       :     0.899622  s :     0.899622
      pz      :     0.030229  p :     0.065178
      px      :     0.014449
      py      :     0.020500
 25 H s       :     0.896760  s :     0.896760
      pz      :     0.012744  p :     0.068143
      px      :     0.042128
      py      :     0.013271
 26 C s       :     2.830502  s :     2.830502
      pz      :     1.068894  p :     3.153553
      px      :     1.050809
      py      :     1.033850
      dz2     :     0.013401  d :     0.071550
      dxz     :     0.003540
      dyz     :     0.022803
      dx2y2   :     0.018018
      dxy     :     0.013788
 27 H s       :     0.899530  s :     0.899530
      pz      :     0.030356  p :     0.065064
      px      :     0.013605
      py      :     0.021103
 28 H s       :     0.904771  s :     0.904771
      pz      :     0.012574  p :     0.064578
      px      :     0.039296
      py      :     0.012708
 29 H s       :     0.899522  s :     0.899522
      pz      :     0.030434  p :     0.065064
      px      :     0.013595
      py      :     0.021035
 30 H s       :     0.909988  s :     0.909988
      pz      :     0.014739  p :     0.066687
      px      :     0.041620
      py      :     0.010328
 31 H s       :     0.899512  s :     0.899512
      pz      :     0.030458  p :     0.065063
      px      :     0.013585
      py      :     0.021020
 32 H s       :     0.904770  s :     0.904770
      pz      :     0.012574  p :     0.064578
      px      :     0.039295
      py      :     0.012709
 33 H s       :     0.899541  s :     0.899541
      pz      :     0.030332  p :     0.065064
      px      :     0.013613
      py      :     0.021120


                      *****************************
                      * MAYER POPULATION ANALYSIS *
                      *****************************

  NA   - Mulliken gross atomic population
  ZA   - Total nuclear charge
  QA   - Mulliken gross atomic charge
  VA   - Mayer's total valence
  BVA  - Mayer's bonded valence
  FA   - Mayer's free valence

  ATOM       NA         ZA         QA         VA         BVA        FA
  0 C      5.9507     6.0000     0.0493     3.9403     3.9403     0.0000
  1 C      6.1145     6.0000    -0.1145     4.0070     4.0070    -0.0000
  2 C      6.0818     6.0000    -0.0818     3.8950     3.8950     0.0000
  3 C      6.1145     6.0000    -0.1145     4.0071     4.0071     0.0000
  4 C      6.1276     6.0000    -0.1276     4.0846     4.0846    -0.0000
  5 C      6.0231     6.0000    -0.0231     3.8911     3.8911    -0.0000
  6 C      6.1275     6.0000    -0.1275     4.0846     4.0846    -0.0000
  7 C      5.9318     6.0000     0.0682     3.9366     3.9366     0.0000
  8 H      0.9642     1.0000     0.0358     0.9921     0.9921    -0.0000
  9 H      0.9473     1.0000     0.0527     0.9972     0.9972     0.0000
 10 H      0.9644     1.0000     0.0356     0.9922     0.9922     0.0000
 11 C      6.1519     6.0000    -0.1519     3.9169     3.9169    -0.0000
 12 C      5.9904     6.0000     0.0096     3.8786     3.8786     0.0000
 13 C      6.0162     6.0000    -0.0162     3.8615     3.8615    -0.0000
 14 C      6.0189     6.0000    -0.0189     3.8535     3.8535    -0.0000
 15 C      6.0162     6.0000    -0.0162     3.8615     3.8615    -0.0000
 16 C      5.9905     6.0000     0.0095     3.8786     3.8786    -0.0000
 17 H      0.9872     1.0000     0.0128     0.9933     0.9933    -0.0000
 18 H      0.9798     1.0000     0.0202     0.9837     0.9837    -0.0000
 19 H      0.9799     1.0000     0.0201     0.9842     0.9842    -0.0000
 20 H      0.9798     1.0000     0.0202     0.9837     0.9837    -0.0000
 21 H      0.9872     1.0000     0.0128     0.9933     0.9933     0.0000
 22 C      5.9318     6.0000     0.0682     3.9366     3.9366     0.0000
 23 H      0.9643     1.0000     0.0357     0.9922     0.9922     0.0000
 24 H      0.9643     1.0000     0.0357     0.9922     0.9922    -0.0000
 25 H      0.9473     1.0000     0.0527     0.9972     0.9972     0.0000
 26 C      5.9507     6.0000     0.0493     3.9403     3.9403    -0.0000
 27 H      0.9591     1.0000     0.0409     0.9905     0.9905    -0.0000
 28 H      0.9705     1.0000     0.0295     0.9974     0.9974     0.0000
 29 H      0.9591     1.0000     0.0409     0.9905     0.9905     0.0000
 30 H      1.0186     1.0000    -0.0186     1.0003     1.0003     0.0000
 31 H      0.9590     1.0000     0.0410     0.9904     0.9904     0.0000
 32 H      0.9705     1.0000     0.0295     0.9974     0.9974     0.0000
 33 H      0.9592     1.0000     0.0408     0.9905     0.9905     0.0000

  Mayer bond orders larger than 0.100000
B(  0-C ,  1-C ) :   1.0698 B(  0-C , 31-H ) :   0.9511 B(  0-C , 32-H ) :   0.9615 
B(  0-C , 33-H ) :   0.9510 B(  1-C ,  2-C ) :   1.3996 B(  1-C ,  6-C ) :   1.3987 
B(  2-C ,  3-C ) :   1.3996 B(  2-C , 30-H ) :   0.9877 B(  3-C ,  4-C ) :   1.3987 
B(  3-C , 26-C ) :   1.0698 B(  4-C ,  5-C ) :   1.4383 B(  4-C , 22-C ) :   1.0871 
B(  5-C ,  6-C ) :   1.4383 B(  5-C , 11-C ) :   0.9433 B(  6-C ,  7-C ) :   1.0871 
B(  7-C ,  8-H ) :   0.9482 B(  7-C ,  9-H ) :   0.9437 B(  7-C , 10-H ) :   0.9481 
B( 11-C , 12-C ) :   1.4080 B( 11-C , 16-C ) :   1.4080 B( 12-C , 13-C ) :   1.3898 
B( 12-C , 21-H ) :   0.9932 B( 13-C , 14-C ) :   1.3953 B( 13-C , 20-H ) :   0.9881 
B( 14-C , 15-C ) :   1.3953 B( 14-C , 19-H ) :   0.9891 B( 15-C , 16-C ) :   1.3898 
B( 15-C , 18-H ) :   0.9881 B( 16-C , 17-H ) :   0.9932 B( 22-C , 23-H ) :   0.9482 
B( 22-C , 24-H ) :   0.9481 B( 22-C , 25-H ) :   0.9437 B( 26-C , 27-H ) :   0.9511 
B( 26-C , 28-H ) :   0.9615 B( 26-C , 29-H ) :   0.9511 

-------
TIMINGS
-------

Total SCF time: 0 days 0 hours 2 min 35 sec 

Total time                  ....     155.482 sec
Sum of individual times     ....     155.219 sec  ( 99.8%)

Fock matrix formation       ....     151.893 sec  ( 97.7%)
  XC integration            ....       6.018 sec  (  4.0% of F)
    Basis function eval.    ....       1.767 sec  ( 29.4% of XC)
    Density eval.           ....       1.280 sec  ( 21.3% of XC)
    XC-Functional eval.     ....       1.260 sec  ( 20.9% of XC)
    XC-Potential eval.      ....       1.544 sec  ( 25.7% of XC)
Diagonalization             ....       0.016 sec  (  0.0%)
Density matrix formation    ....       0.010 sec  (  0.0%)
Population analysis         ....       0.013 sec  (  0.0%)
Initial guess               ....       0.015 sec  (  0.0%)
Orbital Transformation      ....       0.000 sec  (  0.0%)
Orbital Orthonormalization  ....       0.011 sec  (  0.0%)
DIIS solution               ....       0.004 sec  (  0.0%)
SOSCF solution              ....       0.041 sec  (  0.0%)
Grid generation             ....       3.228 sec  (  2.1%)


-------------------------------------------------------------------------------
                          DFT DISPERSION CORRECTION                            
                                                                               
                              DFTD3 V3.1  Rev 1                                
                              USING zero damping                               
-------------------------------------------------------------------------------
The omegaB97X-D3 functional is recognized. Fit by Chai et al.
Active option DFTDOPT                   ...         3   

molecular C6(AA) [au] = 11834.250375 


            DFT-D V3
 parameters
 s6 scaling factor         :     1.0000 
 rs6 scaling factor        :     1.2810 
 s8 scaling factor         :     1.0000 
 rs8 scaling factor        :     1.0940 
 Damping factor alpha6     :    14.0000 
 Damping factor alpha8     :    16.0000 
 ad hoc parameters k1-k3   :    16.0000     1.3333    -4.0000 

 Edisp/kcal,au: -9.230576784650  -0.014709858865 
 E6   /kcal   :  -4.385181364 
 E8   /kcal   :  -4.845395420 
 % E8         :  52.492878107 

-------------------------   ----------------
Dispersion correction           -0.014709859
-------------------------   ----------------


-------------------------   --------------------
FINAL SINGLE POINT ENERGY      -619.959009080745
-------------------------   --------------------

                                *** OPTIMIZATION RUN DONE ***

                            ***************************************
                            *     ORCA property calculations      *
                            ***************************************

                                    ---------------------
                                    Active property flags
                                    ---------------------
   (+) Dipole Moment


------------------------------------------------------------------------------
                       ORCA ELECTRIC PROPERTIES CALCULATION
------------------------------------------------------------------------------

Dipole Moment Calculation                       ... on
Quadrupole Moment Calculation                   ... off
Polarizability Calculation                      ... off
GBWName                                         ... 013574931.gbw
Electron density file                           ... 013574931.scfp
The origin for moment calculation is the CENTER OF MASS  = ( 0.008540,  0.000022  0.000027)

-------------
DIPOLE MOMENT
-------------
                                X             Y             Z
Electronic contribution:      6.73185      -0.00041      -0.00059
Nuclear contribution   :     -6.71616       0.00041       0.00064
                        -----------------------------------------
Total Dipole Moment    :      0.01569       0.00000       0.00005
                        -----------------------------------------
Magnitude (a.u.)       :      0.01569
Magnitude (Debye)      :      0.03987



--------------------
Rotational spectrum 
--------------------
 
Rotational constants in cm-1:     0.029245     0.012741     0.009857 
Rotational constants in MHz :   876.739266   381.973064   295.505290 

 Dipole components along the rotational axes: 
x,y,z [a.u.] :     0.015687     0.000001     0.000051 
x,y,z [Debye]:     0.039874     0.000003     0.000129 

 

Timings for individual modules:

Sum of individual times         ...     1907.611 sec (=  31.794 min)
GTO integral calculation        ...        9.120 sec (=   0.152 min)   0.5 %
SCF iterations                  ...     1247.349 sec (=  20.789 min)  65.4 %
SCF Gradient evaluation         ...      643.716 sec (=  10.729 min)  33.7 %
Geometry relaxation             ...        7.425 sec (=   0.124 min)   0.4 %
                             ****ORCA TERMINATED NORMALLY****
TOTAL RUN TIME: 0 days 0 hours 31 minutes 48 seconds 611 msec
