
                                 *****************
                                 * O   R   C   A *
                                 *****************

           --- An Ab Initio, DFT and Semiempirical electronic structure package ---

                  #######################################################
                  #                        -***-                        #
                  #          Department of theory and spectroscopy      #
                  #               Directorship: Frank Neese             #
                  #        Max Planck Institute fuer Kohlenforschung    #
                  #                Kaiser Wilhelm Platz 1               #
                  #                 D-45470 Muelheim/Ruhr               #
                  #                      Germany                        #
                  #                                                     #
                  #                  All rights reserved                #
                  #                        -***-                        #
                  #######################################################


                         Program Version 4.2.0 -  RELEASE  -


 With contributions from (in alphabetic order):
   Daniel Aravena         : Magnetic Suceptibility
   Michael Atanasov       : Ab Initio Ligand Field Theory (pilot matlab implementation)
   Alexander A. Auer      : GIAO ZORA, VPT2
   Ute Becker             : Parallelization
   Giovanni Bistoni       : ED, misc. LED, open-shell LED, HFLED
   Martin Brehm           : Molecular dynamics
   Dmytro Bykov           : SCF Hessian
   Vijay G. Chilkuri      : MRCI spin determinant printing, contributions to CSF-ICE
   Dipayan Datta          : RHF DLPNO-CCSD density
   Achintya Kumar Dutta   : EOM-CC, STEOM-CC
   Dmitry Ganyushin       : Spin-Orbit,Spin-Spin,Magnetic field MRCI
   Miquel Garcia          : C-PCM Hessian, Gaussian charge scheme
   Yang Guo               : DLPNO-NEVPT2, CIM, IAO-localization
   Andreas Hansen         : Spin unrestricted coupled pair/coupled cluster methods
   Benjamin Helmich-Paris : CASSCF linear response (MC-RPA)
   Lee Huntington         : MR-EOM, pCC
   Robert Izsak           : Overlap fitted RIJCOSX, COSX-SCS-MP3, EOM
   Christian Kollmar      : KDIIS, OOCD, Brueckner-CCSD(T), CCSD density
   Simone Kossmann        : Meta GGA functionals, TD-DFT gradient, OOMP2, MP2 Hessian
   Martin Krupicka        : AUTO-CI
   Lucas Lang             : DCDCAS
   Dagmar Lenk            : GEPOL surface, SMD
   Dimitrios Liakos       : Extrapolation schemes; Compound Job, initial MDCI parallelization
   Dimitrios Manganas     : Further ROCIS development; embedding schemes
   Dimitrios Pantazis     : SARC Basis sets
   Taras Petrenko         : DFT Hessian,TD-DFT gradient, ASA, ECA, R-Raman, ABS, FL, XAS/XES, NRVS
   Peter Pinski           : DLPNO-MP2, DLPNO-MP2 Gradient
   Christoph Reimann      : Effective Core Potentials
   Marius Retegan         : Local ZFS, SOC
   Christoph Riplinger    : Optimizer, TS searches, QM/MM, DLPNO-CCSD(T), (RO)-DLPNO pert. Triples
   Tobias Risthaus        : Range-separated hybrids, TD-DFT gradient, RPA, STAB
   Michael Roemelt        : Original ROCIS implementation
   Masaaki Saitow         : Open-shell DLPNO-CCSD energy and density
   Barbara Sandhoefer     : DKH picture change effects
   Avijit Sen             : IP-ROCIS
   Kantharuban Sivalingam : CASSCF convergence, NEVPT2, FIC-MRCI
   Bernardo de Souza      : ESD, SOC TD-DFT
   Georgi Stoychev        : AutoAux, RI-MP2 NMR
   Willem Van den Heuvel  : Paramagnetic NMR
   Boris Wezisla          : Elementary symmetry handling
   Frank Wennmohs         : Technical directorship


 We gratefully acknowledge several colleagues who have allowed us to
 interface, adapt or use parts of their codes:
   Stefan Grimme, W. Hujo, H. Kruse,             : VdW corrections, initial TS optimization,
                  C. Bannwarth                     DFT functionals, gCP, sTDA/sTD-DF
   Ed Valeev, F. Pavosevic, A. Kumar             : LibInt (2-el integral package), F12 methods
   Garnet Chan, S. Sharma, J. Yang, R. Olivares  : DMRG
   Ulf Ekstrom                                   : XCFun DFT Library
   Mihaly Kallay                                 : mrcc  (arbitrary order and MRCC methods)
   Andreas Klamt, Michael Diedenhofen            : otool_cosmo (COSMO solvation model)
   Jiri Pittner, Ondrej Demel                    : Mk-CCSD
   Frank Weinhold                                : gennbo (NPA and NBO analysis)
   Christopher J. Cramer and Donald G. Truhlar   : smd solvation model
   Lars Goerigk                                  : TD-DFT with DH, B97 family of functionals
   V. Asgeirsson, H. Jonsson                     : NEB implementation
   FAccTs GmbH                                   : IRC, NEB, NEB-TS, Multilevel, MM, QM/MM, CI optimization
   S Lehtola, MJT Oliveira, MAL Marques          : LibXC Library


 Your calculation uses the libint2 library for the computation of 2-el integrals
 For citations please refer to: http://libint.valeyev.net

 Your ORCA version has been built with support for libXC version: 4.2.3
 For citations please refer to: https://tddft.org/programs/libxc/

 This ORCA versions uses:
   CBLAS   interface :  Fast vector & matrix operations
   LAPACKE interface :  Fast linear algebra routines
   SCALAPACK package :  Parallel linear algebra routines


Your calculation utilizes the atom-pairwise dispersion correction
with the zero-damping scheme (D30)
Cite in your paper:
S.Grimme, J.Antony, S.Ehrlich and H.Krieg, J.Chem.Phys., 132, (2010), 154104 
   

XCFun DFT library Copyright 2009-2010 Ulf Ekstrom and contributors.
See http://admol.org/xcfun for more information. This is free soft-
ware; see the source code for copying conditions. There is ABSOLUTELY
NO WARRANTY; not even for MERCHANTABILITY or FITNESS FOR A PARTICULAR
PURPOSE. For details see the documentation. Scientific users of this 
library should cite U. Ekstrom, L. Visscher, R. Bast, A. J. Thorvald-
sen and K. Ruud; J.Chem.Theor.Comp. 2010, DOI: 10.1021/ct100117s
XCFun Version 0.99 
----- Orbital basis set information -----
Your calculation utilizes the basis: def2-SVP
   F. Weigend and R. Ahlrichs, Phys. Chem. Chem. Phys. 7, 3297 (2005).

================================================================================
                                        WARNINGS
                       Please study these warnings very carefully!
================================================================================


WARNING: Geometry Optimization
  ===> : Switching off AutoStart
         For restart on a previous wavefunction, please use MOREAD

INFO   : the flag for use of LIBINT has been found!

================================================================================
                                       INPUT FILE
================================================================================
NAME = 023237862.inp
|  1> # ORCA input file
|  2> # -44.87604998
|  3> ! wB97X-D3 def2-SVP Opt
|  4> * xyz 0 1
|  5>    C       -4.28280        -0.37210         0.01970
|  6>    N       -2.91020         0.04510        -0.00520
|  7>    C       -1.80520        -0.71570         0.00130
|  8>    C       -0.67560         0.08730        -0.00190
|  9>    C       -1.25340         1.38750        -0.00590
| 10>    N       -2.57120         1.34400        -0.00650
| 11>    O       -0.60550         2.55930        -0.01120
| 12>    H       -1.26800         3.26300        -0.01510
| 13>    C        0.72760        -0.29290        -0.00240
| 14>    C        1.71610         0.69050         0.00550
| 15>    C        3.04170         0.30940         0.00570
| 16>    C        3.43460        -1.01640        -0.00180
| 17>    C        2.44740        -1.98710        -0.00980
| 18>    C        1.11090        -1.63550        -0.01000
| 19>    H        0.36390        -2.41230        -0.01650
| 20>    H        2.72550        -3.03020        -0.01580
| 21>    H        4.48240        -1.27060        -0.00130
| 22>    F        3.99220         1.27080         0.01350
| 23>    H        1.45800         1.73580         0.01130
| 24>    F       -1.93630        -2.04260         0.00250
| 25>    H       -4.70150        -0.24280         1.02000
| 26>    H       -4.34150        -1.42050        -0.26640
| 27>    H       -4.85000         0.23900        -0.68110
| 28> *
| 29> 
| 30>                          ****END OF INPUT****
================================================================================

                       *****************************
                       * Geometry Optimization Run *
                       *****************************

Geometry optimization settings:
Update method            Update   .... BFGS
Choice of coordinates    CoordSys .... Z-matrix Internals
Initial Hessian          InHess   .... Almoef's Model

Convergence Tolerances:
Energy Change            TolE     ....  5.0000e-06 Eh
Max. Gradient            TolMAXG  ....  3.0000e-04 Eh/bohr
RMS Gradient             TolRMSG  ....  1.0000e-04 Eh/bohr
Max. Displacement        TolMAXD  ....  4.0000e-03 bohr
RMS Displacement         TolRMSD  ....  2.0000e-03 bohr
Strict Convergence                ....  False
------------------------------------------------------------------------------
                        ORCA OPTIMIZATION COORDINATE SETUP
------------------------------------------------------------------------------

The optimization will be done in new redundant internal coordinates
Making redundant internal coordinates   ...  (new redundants) done
Evaluating the initial hessian          ...  (Almloef) done
Evaluating the coordinates              ...  done
Calculating the B-matrix                .... done
Calculating the G-matrix                .... done
Diagonalizing the G-matrix              .... done
Small eigenvalue found = 9.663e-03
The first mode is                       ....   51
The number of degrees of freedom        ....   63

    -----------------------------------------------------------------
                    Redundant Internal Coordinates


    -----------------------------------------------------------------
         Definition                    Initial Value    Approx d2E/dq
    -----------------------------------------------------------------
      1. B(N   1,C   0)                  1.4348         0.474645   
      2. B(C   2,N   1)                  1.3416         0.668496   
      3. B(C   3,C   2)                  1.3859         0.634197   
      4. B(C   4,C   3)                  1.4228         0.553850   
      5. B(N   5,C   4)                  1.3185         0.727647   
      6. B(N   5,N   1)                  1.3424         0.596952   
      7. B(O   6,C   4)                  1.3390         0.674908   
      8. B(H   7,O   6)                  0.9665         0.507694   
      9. B(C   8,C   3)                  1.4538         0.494261   
     10. B(C   9,C   8)                  1.3944         0.614844   
     11. B(C  10,C   9)                  1.3793         0.649859   
     12. B(C  11,C  10)                  1.3828         0.641512   
     13. B(C  12,C  11)                  1.3845         0.637510   
     14. B(C  13,C  12)                  1.3820         0.643490   
     15. B(C  13,C   8)                  1.3963         0.610584   
     16. B(H  14,C  13)                  1.0777         0.376724   
     17. B(H  15,C  12)                  1.0796         0.374190   
     18. B(H  16,C  11)                  1.0782         0.376061   
     19. B(F  17,C  10)                  1.3520         0.597935   
     20. B(H  18,C   9)                  1.0767         0.378119   
     21. B(F  19,C   2)                  1.3334         0.640221   
     22. B(H  20,C   0)                  1.0921         0.357365   
     23. B(H  21,C   0)                  1.0883         0.362329   
     24. B(H  22,C   0)                  1.0892         0.361207   
     25. A(N   1,C   0,H  21)          109.0952         0.335724   
     26. A(H  20,C   0,H  22)          108.8605         0.290631   
     27. A(N   1,C   0,H  20)          110.3798         0.334955   
     28. A(N   1,C   0,H  22)          108.8975         0.335551   
     29. A(H  20,C   0,H  21)          109.5219         0.290773   
     30. A(H  21,C   0,H  22)          110.0755         0.291262   
     31. A(C   0,N   1,C   2)          128.5322         0.413988   
     32. A(C   2,N   1,N   5)          109.9204         0.428425   
     33. A(C   0,N   1,N   5)          121.5297         0.403109   
     34. A(N   1,C   2,F  19)          118.9050         0.434821   
     35. A(N   1,C   2,C   3)          110.0434         0.438898   
     36. A(C   3,C   2,F  19)          131.0505         0.433558   
     37. A(C   2,C   3,C   4)          101.4482         0.427094   
     38. A(C   2,C   3,C   8)          129.4316         0.418494   
     39. A(C   4,C   3,C   8)          129.1202         0.408545   
     40. A(C   3,C   4,N   5)          112.0694         0.434908   
     41. A(N   5,C   4,O   6)          120.8289         0.447760   
     42. A(C   3,C   4,O   6)          127.1016         0.429067   
     43. A(N   1,N   5,C   4)          106.5179         0.435002   
     44. A(C   4,O   6,H   7)          107.7893         0.374024   
     45. A(C   3,C   8,C   9)          119.9871         0.416191   
     46. A(C   9,C   8,C  13)          118.9193         0.432224   
     47. A(C   3,C   8,C  13)          121.0936         0.415677   
     48. A(C  10,C   9,H  18)          119.9088         0.358698   
     49. A(C   8,C   9,C  10)          119.1082         0.437101   
     50. A(C   8,C   9,H  18)          120.9831         0.355338   
     51. A(C   9,C  10,C  11)          122.5461         0.440462   
     52. A(C  11,C  10,F  17)          118.8205         0.429152   
     53. A(C   9,C  10,F  17)          118.6333         0.430148   
     54. A(C  12,C  11,H  16)          121.8457         0.357198   
     55. A(C  10,C  11,H  16)          120.1432         0.357578   
     56. A(C  10,C  11,C  12)          118.0111         0.438939   
     57. A(C  13,C  12,H  15)          119.6669         0.357462   
     58. A(C  11,C  12,H  15)          119.5899         0.356895   
     59. A(C  11,C  12,C  13)          120.7432         0.439183   
     60. A(C  12,C  13,H  14)          119.1400         0.357872   
     61. A(C   8,C  13,H  14)          120.1879         0.354697   
     62. A(C   8,C  13,C  12)          120.6721         0.435779   
     63. D(N   5,N   1,C   0,H  22)     43.8695         0.019258   
     64. D(C   2,N   1,C   0,H  22)   -137.8224         0.019258   
     65. D(N   5,N   1,C   0,H  20)    -75.5810         0.019258   
     66. D(C   2,N   1,C   0,H  21)    -17.6603         0.019258   
     67. D(C   2,N   1,C   0,H  20)    102.7271         0.019258   
     68. D(N   5,N   1,C   0,H  21)    164.0316         0.019258   
     69. D(C   3,C   2,N   1,N   5)     -0.2837         0.036654   
     70. D(C   3,C   2,N   1,C   0)   -178.7498         0.036654   
     71. D(F  19,C   2,N   1,C   0)      1.5867         0.036654   
     72. D(F  19,C   2,N   1,N   5)   -179.9472         0.036654   
     73. D(C   8,C   3,C   2,F  19)     -0.1301         0.027911   
     74. D(C   4,C   3,C   2,F  19)    179.8156         0.027911   
     75. D(C   8,C   3,C   2,N   1)   -179.7395         0.027911   
     76. D(C   4,C   3,C   2,N   1)      0.2062         0.027911   
     77. D(N   5,C   4,C   3,C   2)     -0.0652         0.020995   
     78. D(O   6,C   4,C   3,C   8)      0.0061         0.020995   
     79. D(O   6,C   4,C   3,C   2)   -179.9398         0.020995   
     80. D(N   5,C   4,C   3,C   8)    179.8808         0.020995   
     81. D(N   1,N   5,C   4,O   6)    179.7859         0.039957   
     82. D(N   1,N   5,C   4,C   3)     -0.0976         0.039957   
     83. D(C   4,N   5,N   1,C   2)      0.2315         0.030512   
     84. D(C   4,N   5,N   1,C   0)    178.8238         0.030512   
     85. D(H   7,O   6,C   4,N   5)     -0.0043         0.033881   
     86. D(H   7,O   6,C   4,C   3)    179.8604         0.033881   
     87. D(C  13,C   8,C   3,C   4)   -179.4240         0.016636   
     88. D(C  13,C   8,C   3,C   2)      0.5074         0.016636   
     89. D(C   9,C   8,C   3,C   4)      0.6098         0.016636   
     90. D(C   9,C   8,C   3,C   2)   -179.4588         0.016636   
     91. D(H  18,C   9,C   8,C   3)     -0.0450         0.026133   
     92. D(C  10,C   9,C   8,C  13)     -0.0057         0.026133   
     93. D(C  10,C   9,C   8,C   3)    179.9612         0.026133   
     94. D(H  18,C   9,C   8,C  13)    179.9881         0.026133   
     95. D(F  17,C  10,C   9,H  18)      0.0112         0.029404   
     96. D(F  17,C  10,C   9,C   8)   -179.9948         0.029404   
     97. D(C  11,C  10,C   9,H  18)   -179.9869         0.029404   
     98. D(C  11,C  10,C   9,C   8)      0.0070         0.029404   
     99. D(H  16,C  11,C  10,F  17)      0.0049         0.028602   
    100. D(H  16,C  11,C  10,C   9)   -179.9970         0.028602   
    101. D(C  12,C  11,C  10,F  17)   -179.9966         0.028602   
    102. D(C  12,C  11,C  10,C   9)      0.0015         0.028602   
    103. D(H  15,C  12,C  11,H  16)     -0.0038         0.028223   
    104. D(H  15,C  12,C  11,C  10)    179.9977         0.028223   
    105. D(C  13,C  12,C  11,H  16)    179.9871         0.028223   
    106. D(C  13,C  12,C  11,C  10)     -0.0114         0.028223   
    107. D(H  14,C  13,C  12,H  15)     -0.0198         0.028791   
    108. D(H  14,C  13,C  12,C  11)    179.9892         0.028791   
    109. D(C   8,C  13,C  12,H  15)   -179.9963         0.028791   
    110. D(C   8,C  13,C  12,C  11)      0.0128         0.028791   
    111. D(H  14,C  13,C   8,C   9)   -179.9802         0.025751   
    112. D(H  14,C  13,C   8,C   3)      0.0533         0.025751   
    113. D(C  12,C  13,C   8,C   9)     -0.0040         0.025751   
    114. D(C  12,C  13,C   8,C   3)   -179.9705         0.025751   
    -----------------------------------------------------------------

Number of atoms                         .... 23
Number of degrees of freedom            .... 114

         *************************************************************
         *                GEOMETRY OPTIMIZATION CYCLE   1            *
         *************************************************************
---------------------------------
CARTESIAN COORDINATES (ANGSTROEM)
---------------------------------
  C     -4.282800   -0.372100    0.019700
  N     -2.910200    0.045100   -0.005200
  C     -1.805200   -0.715700    0.001300
  C     -0.675600    0.087300   -0.001900
  C     -1.253400    1.387500   -0.005900
  N     -2.571200    1.344000   -0.006500
  O     -0.605500    2.559300   -0.011200
  H     -1.268000    3.263000   -0.015100
  C      0.727600   -0.292900   -0.002400
  C      1.716100    0.690500    0.005500
  C      3.041700    0.309400    0.005700
  C      3.434600   -1.016400   -0.001800
  C      2.447400   -1.987100   -0.009800
  C      1.110900   -1.635500   -0.010000
  H      0.363900   -2.412300   -0.016500
  H      2.725500   -3.030200   -0.015800
  H      4.482400   -1.270600   -0.001300
  F      3.992200    1.270800    0.013500
  H      1.458000    1.735800    0.011300
  F     -1.936300   -2.042600    0.002500
  H     -4.701500   -0.242800    1.020000
  H     -4.341500   -1.420500   -0.266400
  H     -4.850000    0.239000   -0.681100

----------------------------
CARTESIAN COORDINATES (A.U.)
----------------------------
  NO LB      ZA    FRAG     MASS         X           Y           Z
   0 C     6.0000    0    12.011   -8.093319   -0.703167    0.037228
   1 N     7.0000    0    14.007   -5.499481    0.085227   -0.009827
   2 C     6.0000    0    12.011   -3.411334   -1.352477    0.002457
   3 C     6.0000    0    12.011   -1.276699    0.164973   -0.003590
   4 C     6.0000    0    12.011   -2.368583    2.621995   -0.011149
   5 N     7.0000    0    14.007   -4.858864    2.539792   -0.012283
   6 O     8.0000    0    15.999   -1.144229    4.836376   -0.021165
   7 H     1.0000    0     1.008   -2.396173    6.166176   -0.028535
   8 C     6.0000    0    12.011    1.374965   -0.553501   -0.004535
   9 C     6.0000    0    12.011    3.242959    1.304856    0.010393
  10 C     6.0000    0    12.011    5.747980    0.584681    0.010771
  11 C     6.0000    0    12.011    6.490453   -1.920718   -0.003402
  12 C     6.0000    0    12.011    4.624916   -3.755075   -0.018519
  13 C     6.0000    0    12.011    2.099297   -3.090647   -0.018897
  14 H     1.0000    0     1.008    0.687671   -4.558586   -0.031180
  15 H     1.0000    0     1.008    5.150449   -5.726248   -0.029858
  16 H     1.0000    0     1.008    8.470508   -2.401086   -0.002457
  17 F     9.0000    0    18.998    7.544165    2.401464    0.025511
  18 H     1.0000    0     1.008    2.755221    3.280187    0.021354
  19 F     9.0000    0    18.998   -3.659077   -3.859955    0.004724
  20 H     1.0000    0     1.008   -8.884547   -0.458826    1.927521
  21 H     1.0000    0     1.008   -8.204246   -2.684356   -0.503423
  22 H     1.0000    0     1.008   -9.165172    0.451645   -1.287092

--------------------------------
INTERNAL COORDINATES (ANGSTROEM)
--------------------------------
 C      0   0   0     0.000000000000     0.00000000     0.00000000
 N      1   0   0     1.434819364938     0.00000000     0.00000000
 C      2   1   0     1.341597514160   128.53217469     0.00000000
 C      3   2   1     1.385934846953   110.04342034   181.25023712
 C      4   3   2     1.422810205193   101.44818822     0.20620220
 N      5   4   3     1.318517899006   112.06939855   359.93481591
 O      5   4   3     1.338998782673   127.10160598   180.06016348
 H      7   5   4     0.966496326946   107.78934506   179.86039003
 C      4   3   2     1.453795903832   129.43160111   180.26048519
 C      9   4   3     1.394370904745   119.98711624   180.54123276
 C     10   9   4     1.379294243445   119.10818337   179.96115897
 C     11  10   9     1.382813183333   122.54610942     0.00000000
 C     12  11  10     1.384516641287   118.01107693     0.00000000
 C     13  12  11     1.381974981684   120.74319795     0.00000000
 H     14  13  12     1.077714939119   119.13998978   179.98924746
 H     13  12  11     1.079552323882   119.58988731   179.99767007
 H     12  11  10     1.078194198649   120.14319522   180.00299632
 F     11  10   9     1.351961926239   118.63334213   180.00516910
 H     10   9   4     1.076708567812   120.98305222   359.95501447
 F      3   2   1     1.333361263874   118.90496795     1.58670651
 H      1   2   3     1.092075212611   110.37982804   102.72707495
 H      1   2   3     1.088320476698   109.09515781   342.33965687
 H      1   2   3     1.089164675336   108.89745998   222.17758160

---------------------------
INTERNAL COORDINATES (A.U.)
---------------------------
 C      0   0   0     0.000000000000     0.00000000     0.00000000
 N      1   0   0     2.711415651379     0.00000000     0.00000000
 C      2   1   0     2.535251883712   128.53217469     0.00000000
 C      3   2   1     2.619037300200   110.04342034   181.25023712
 C      4   3   2     2.688721628362   101.44818822     0.20620220
 N      5   4   3     2.491637731795   112.06939855   359.93481591
 O      5   4   3     2.530340992906   127.10160598   180.06016348
 H      7   5   4     1.826413367369   107.78934506   179.86039003
 C      4   3   2     2.747276112860   129.43160111   180.26048519
 C      9   4   3     2.634979139076   119.98711624   180.54123276
 C     10   9   4     2.606488378205   119.10818337   179.96115897
 C     11  10   9     2.613138210876   122.54610942     0.00000000
 C     12  11  10     2.616357279888   118.01107693     0.00000000
 C     13  12  11     2.611554239313   120.74319795     0.00000000
 H     14  13  12     2.036586085370   119.13998978   179.98924746
 H     13  12  11     2.040058239376   119.58988731   179.99767007
 H     12  11  10     2.037491754629   120.14319522   180.00299632
 F     11  10   9     2.554837784080   118.63334213   180.00516910
 H     10   9   4     2.034684319211   120.98305222   359.95501447
 F      3   2   1     2.519687626301   118.90496795     1.58670651
 H      1   2   3     2.063723069479   110.37982804   102.72707495
 H      1   2   3     2.056627646898   109.09515781   342.33965687
 H      1   2   3     2.058222951126   108.89745998   222.17758160

---------------------
BASIS SET INFORMATION
---------------------
There are 5 groups of distinct atoms

 Group   1 Type C   : 7s4p1d contracted to 3s2p1d pattern {511/31/1}
 Group   2 Type N   : 7s4p1d contracted to 3s2p1d pattern {511/31/1}
 Group   3 Type O   : 7s4p1d contracted to 3s2p1d pattern {511/31/1}
 Group   4 Type H   : 4s1p contracted to 2s1p pattern {31/1}
 Group   5 Type F   : 7s4p1d contracted to 3s2p1d pattern {511/31/1}

Atom   0C    basis set group =>   1
Atom   1N    basis set group =>   2
Atom   2C    basis set group =>   1
Atom   3C    basis set group =>   1
Atom   4C    basis set group =>   1
Atom   5N    basis set group =>   2
Atom   6O    basis set group =>   3
Atom   7H    basis set group =>   4
Atom   8C    basis set group =>   1
Atom   9C    basis set group =>   1
Atom  10C    basis set group =>   1
Atom  11C    basis set group =>   1
Atom  12C    basis set group =>   1
Atom  13C    basis set group =>   1
Atom  14H    basis set group =>   4
Atom  15H    basis set group =>   4
Atom  16H    basis set group =>   4
Atom  17F    basis set group =>   5
Atom  18H    basis set group =>   4
Atom  19F    basis set group =>   5
Atom  20H    basis set group =>   4
Atom  21H    basis set group =>   4
Atom  22H    basis set group =>   4
------------------------------------------------------------------------------
                           ORCA GTO INTEGRAL CALCULATION
------------------------------------------------------------------------------

                         BASIS SET STATISTICS AND STARTUP INFO

 # of primitive gaussian shells          ...  220
 # of primitive gaussian functions       ...  416
 # of contracted shells                  ...  114
 # of contracted basis functions         ...  250
 Highest angular momentum                ...    2
 Maximum contraction depth               ...    5
 Integral package used                   ... LIBINT
 Integral threshhold            Thresh   ...  2.500e-11
 Primitive cut-off              TCut     ...  2.500e-12


------------------------------ INTEGRAL EVALUATION ----------------------------


 * One electron integrals 
 Pre-screening matrix                    ... done
 Shell pair data                         ... done (   0.002 sec)

-------------------------------------------------------------------------------
                                 ORCA SCF
-------------------------------------------------------------------------------

------------
SCF SETTINGS
------------
Hamiltonian:
 Density Functional     Method          .... DFT(GTOs)
 Exchange Functional    Exchange        .... WB97X-D3
 Correlation Functional Correlation     .... WB97X-D3
 Gradients option       PostSCFGGA      .... off
 Hybrid DFT is turned on
   Fraction HF Exchange ScalHFX         ....  0.195728
   Scaling of DF-GGA-X  ScalDFX         ....  0.000000
   Scaling of DF-GGA-C  ScalDFC         ....  1.000000
   Scaling of DF-LDA-C  ScalLDAC        ....  1.000000
   Perturbative correction              ....  0.000000
   Density functional embedding theory  .... OFF
 Long-range corrected/Screened/Range-Separated Hybrid DFT is turned on
   Amount of maximum screened exact exchange              ....  0.804272
   Range separation parameter mu (erf(mu*r12)/r12)        ....  0.250000


General Settings:
 Integral files         IntName         .... 023237862
 Hartree-Fock type      HFTyp           .... RHF
 Total Charge           Charge          ....    0
 Multiplicity           Mult            ....    1
 Number of Electrons    NEL             ....  108
 Basis Dimension        Dim             ....  250
 Nuclear Repulsion      ENuc            ....    964.8077957539 Eh

Convergence Acceleration:
 DIIS                   CNVDIIS         .... on
   Start iteration      DIISMaxIt       ....    12
   Startup error        DIISStart       ....  0.200000
   # of expansion vecs  DIISMaxEq       ....     5
   Bias factor          DIISBfac        ....   1.050
   Max. coefficient     DIISMaxC        ....  10.000
 Newton-Raphson         CNVNR           .... off
 SOSCF                  CNVSOSCF        .... on
   Start iteration      SOSCFMaxIt      ....   150
   Startup grad/error   SOSCFStart      ....  0.003300
 Level Shifting         CNVShift        .... on
   Level shift para.    LevelShift      ....    0.2500
   Turn off err/grad.   ShiftErr        ....    0.0010
 Zerner damping         CNVZerner       .... off
 Static damping         CNVDamp         .... on
   Fraction old density DampFac         ....    0.7000
   Max. Damping (<1)    DampMax         ....    0.9800
   Min. Damping (>=0)   DampMin         ....    0.0000
   Turn off err/grad.   DampErr         ....    0.1000
 Fernandez-Rico         CNVRico         .... off

SCF Procedure:
 Maximum # iterations   MaxIter         ....   125
 SCF integral mode      SCFMode         .... Direct
   Integral package                     .... LIBINT
 Reset frequency        DirectResetFreq ....    20
 Integral Threshold     Thresh          ....  2.500e-11 Eh
 Primitive CutOff       TCut            ....  2.500e-12 Eh

Convergence Tolerance:
 Convergence Check Mode ConvCheckMode   .... Total+1el-Energy
 Convergence forced     ConvForced      .... 0
 Energy Change          TolE            ....  1.000e-08 Eh
 1-El. energy change                    ....  1.000e-05 Eh
 Orbital Gradient       TolG            ....  1.000e-05
 Orbital Rotation angle TolX            ....  1.000e-05
 DIIS Error             TolErr          ....  5.000e-07


Diagonalization of the overlap matrix:
Smallest eigenvalue                        ... 2.536e-04
Time for diagonalization                   ...    0.010 sec
Threshold for overlap eigenvalues          ... 1.000e-08
Number of eigenvalues below threshold      ... 0
Time for construction of square roots      ...    0.004 sec
Total time needed                          ...    0.014 sec

-------------------
DFT GRID GENERATION
-------------------

General Integration Accuracy     IntAcc      ...  4.340
Radial Grid Type                 RadialGrid  ... Gauss-Chebyshev
Angular Grid (max. acc.)         AngularGrid ... Lebedev-110
Angular grid pruning method      GridPruning ... 3 (G Style)
Weight generation scheme         WeightScheme... Becke
Basis function cutoff            BFCut       ...    1.0000e-11
Integration weight cutoff        WCut        ...    1.0000e-14
Grids for H and He will be reduced by one unit

# of grid points (after initial pruning)     ...  31512 (   0.0 sec)
# of grid points (after weights+screening)   ...  28810 (   0.1 sec)
nearest neighbour list constructed           ...    0.0 sec
Grid point re-assignment to atoms done       ...    0.0 sec
Grid point division into batches done        ...    0.0 sec
Reduced shell lists constructed in    0.2 sec

Total number of grid points                  ...    28810
Total number of batches                      ...      460
Average number of points per batch           ...       62
Average number of grid points per atom       ...     1253
Average number of shells per batch           ...    65.17 (57.16%)
Average number of basis functions per batch  ...   139.29 (55.72%)
Average number of large shells per batch     ...    46.52 (71.39%)
Average number of large basis fcns per batch ...    99.57 (71.49%)
Maximum spatial batch extension              ...  19.00, 25.60, 22.18 au
Average spatial batch extension              ...   3.19,  3.45,  4.39 au

Time for grid setup =    0.342 sec

------------------------------
INITIAL GUESS: MODEL POTENTIAL
------------------------------
Loading Hartree-Fock densities                     ... done
Calculating cut-offs                               ... done
Setting up the integral package                    ... done
Initializing the effective Hamiltonian             ... done
Starting the Coulomb interaction                   ... done (   0.2 sec)
Reading the grid                                   ... done
Mapping shells                                     ... done
Starting the XC term evaluation                    ... done (   0.3 sec)
  promolecular density results
     # of electrons  =    108.005703479
     EX              =    -94.844234072
     EC              =     -3.678139437
     EX+EC           =    -98.522373509
Transforming the Hamiltonian                       ... done (   0.0 sec)
Diagonalizing the Hamiltonian                      ... done (   0.0 sec)
Back transforming the eigenvectors                 ... done (   0.0 sec)
Now organizing SCF variables                       ... done
                      ------------------
                      INITIAL GUESS DONE (   1.0 sec)
                      ------------------
--------------
SCF ITERATIONS
--------------
ITER       Energy         Delta-E        Max-DP      RMS-DP      [F,P]     Damp
               ***  Starting incremental Fock matrix formation  ***
  0   -769.2307334944   0.000000000000 0.06165332  0.00175878  0.1730827 0.7000
  1   -769.3344324402  -0.103698945729 0.03873651  0.00127634  0.0904628 0.7000
                               ***Turning on DIIS***
  2   -769.3876388670  -0.053206426810 0.07132850  0.00259053  0.0421100 0.0000
  3   -769.4756302078  -0.087991340829 0.03547576  0.00074027  0.0397253 0.0000
  4   -769.4882763741  -0.012646166289 0.00475602  0.00017691  0.0059150 0.0000
                      *** Initiating the SOSCF procedure ***
                           *** Shutting down DIIS ***
                      *** Re-Reading the Fockian *** 
                      *** Removing any level shift *** 
ITER      Energy       Delta-E        Grad      Rot      Max-DP    RMS-DP
  5   -769.48867806  -0.0004016823  0.002139  0.002139  0.004470  0.000079
               *** Restarting incremental Fock matrix formation ***
  6   -769.48877100  -0.0000929434  0.001427  0.004088  0.002020  0.000056
  7   -769.48880815  -0.0000371513  0.000639  0.004250  0.001800  0.000058
  8   -769.48881598  -0.0000078252  0.000423  0.000751  0.000600  0.000016
  9   -769.48881915  -0.0000031775  0.000096  0.000243  0.000192  0.000005
 10   -769.48881924  -0.0000000842  0.000059  0.000111  0.000115  0.000002
 11   -769.48881934  -0.0000001014  0.000010  0.000048  0.000029  0.000001
 12   -769.48881934  -0.0000000022  0.000005  0.000009  0.000011  0.000000
                  ***Gradient check signals convergence***
              ***Rediagonalizing the Fockian in SOSCF/NRSCF***

               *****************************************************
               *                     SUCCESS                       *
               *           SCF CONVERGED AFTER  13 CYCLES          *
               *****************************************************

Setting up the final grid:

General Integration Accuracy     IntAcc      ...  4.670
Radial Grid Type                 RadialGrid  ... Gauss-Chebyshev
Angular Grid (max. acc.)         AngularGrid ... Lebedev-302
Angular grid pruning method      GridPruning ... 3 (G Style)
Weight generation scheme         WeightScheme... Becke
Basis function cutoff            BFCut       ...    1.0000e-11
Integration weight cutoff        WCut        ...    1.0000e-14
Grids for H and He will be reduced by one unit

# of grid points (after initial pruning)     ... 120452 (   0.0 sec)
# of grid points (after weights+screening)   ... 108367 (   0.4 sec)
nearest neighbour list constructed           ...    0.0 sec
Grid point re-assignment to atoms done       ...    0.0 sec
Grid point division into batches done        ...    0.4 sec
Reduced shell lists constructed in    1.1 sec

Total number of grid points                  ...   108367
Total number of batches                      ...     1706
Average number of points per batch           ...       63
Average number of grid points per atom       ...     4712
Average number of shells per batch           ...    58.61 (51.41%)
Average number of basis functions per batch  ...   124.22 (49.69%)
Average number of large shells per batch     ...    41.41 (70.65%)
Average number of large basis fcns per batch ...    87.84 (70.71%)
Maximum spatial batch extension              ...  17.32, 21.17, 23.14 au
Average spatial batch extension              ...   2.18,  2.31,  2.60 au

Final grid set up in    1.5 sec
Final integration                            ... done (   1.7 sec)
Change in XC energy                          ...     0.001278088
Integrated number of electrons               ...   108.000054892
Previous integrated no of electrons          ...   108.000183135

----------------
TOTAL SCF ENERGY
----------------

Total Energy       :         -769.48754126 Eh          -20938.82051 eV

Components:
Nuclear Repulsion  :          964.80779575 Eh           26253.75484 eV
Electronic Energy  :        -1734.29533701 Eh          -47192.57534 eV
One Electron Energy:        -2966.77863341 Eh          -80730.15086 eV
Two Electron Energy:         1232.48329640 Eh           33537.57551 eV

Virial components:
Potential Energy   :        -1532.35964014 Eh          -41697.62567 eV
Kinetic Energy     :          762.87209888 Eh           20758.80517 eV
Virial Ratio       :            2.00867176


DFT components:
N(Alpha)           :       54.000027446197 electrons
N(Beta)            :       54.000027446197 electrons
N(Total)           :      108.000054892393 electrons
E(XC)              :      -69.946128802014 Eh       
DFET-embed. en.    :        0.000000000000 Eh       

---------------
SCF CONVERGENCE
---------------

  Last Energy change         ...   -2.5840e-09  Tolerance :   1.0000e-08
  Last MAX-Density change    ...    4.2444e-06  Tolerance :   1.0000e-07
  Last RMS-Density change    ...    1.1302e-07  Tolerance :   5.0000e-09
  Last Orbital Gradient      ...    9.8696e-07  Tolerance :   1.0000e-05
  Last Orbital Rotation      ...    4.1389e-06  Tolerance :   1.0000e-05

             **** THE GBW FILE WAS UPDATED (023237862.gbw) ****
             **** DENSITY FILE WAS UPDATED (023237862.scfp) ****
             **** ENERGY FILE WAS UPDATED (023237862.en.tmp) ****
             **** THE GBW FILE WAS UPDATED (023237862.gbw) ****
             **** DENSITY FILE WAS UPDATED (023237862.scfp) ****
----------------
ORBITAL ENERGIES
----------------

  NO   OCC          E(Eh)            E(eV) 
   0   2.0000     -24.843667      -676.0305 
   1   2.0000     -24.787407      -674.4996 
   2   2.0000     -19.286651      -524.8164 
   3   2.0000     -14.525312      -395.2538 
   4   2.0000     -14.446450      -393.1079 
   5   2.0000     -10.420908      -283.5673 
   6   2.0000     -10.379110      -282.4299 
   7   2.0000     -10.367518      -282.1145 
   8   2.0000     -10.347761      -281.5769 
   9   2.0000     -10.312872      -280.6275 
  10   2.0000     -10.303380      -280.3692 
  11   2.0000     -10.295740      -280.1613 
  12   2.0000     -10.288726      -279.9705 
  13   2.0000     -10.286944      -279.9220 
  14   2.0000     -10.285862      -279.8925 
  15   2.0000      -1.366619       -37.1876 
  16   2.0000      -1.307527       -35.5796 
  17   2.0000      -1.206035       -32.8179 
  18   2.0000      -1.169633       -31.8273 
  19   2.0000      -0.986007       -26.8306 
  20   2.0000      -0.967622       -26.3303 
  21   2.0000      -0.923325       -25.1249 
  22   2.0000      -0.872215       -23.7342 
  23   2.0000      -0.856435       -23.3048 
  24   2.0000      -0.822107       -22.3707 
  25   2.0000      -0.754121       -20.5207 
  26   2.0000      -0.740772       -20.1574 
  27   2.0000      -0.715535       -19.4707 
  28   2.0000      -0.710201       -19.3256 
  29   2.0000      -0.694006       -18.8849 
  30   2.0000      -0.647784       -17.6271 
  31   2.0000      -0.633379       -17.2351 
  32   2.0000      -0.615600       -16.7513 
  33   2.0000      -0.609340       -16.5810 
  34   2.0000      -0.593465       -16.1490 
  35   2.0000      -0.577844       -15.7239 
  36   2.0000      -0.576906       -15.6984 
  37   2.0000      -0.561074       -15.2676 
  38   2.0000      -0.557232       -15.1631 
  39   2.0000      -0.539706       -14.6861 
  40   2.0000      -0.539164       -14.6714 
  41   2.0000      -0.531884       -14.4733 
  42   2.0000      -0.522648       -14.2220 
  43   2.0000      -0.502472       -13.6730 
  44   2.0000      -0.484070       -13.1722 
  45   2.0000      -0.474641       -12.9156 
  46   2.0000      -0.468901       -12.7595 
  47   2.0000      -0.459778       -12.5112 
  48   2.0000      -0.439716       -11.9653 
  49   2.0000      -0.402100       -10.9417 
  50   2.0000      -0.388639       -10.5754 
  51   2.0000      -0.334957        -9.1146 
  52   2.0000      -0.330262        -8.9869 
  53   2.0000      -0.299961        -8.1623 
  54   0.0000       0.049717         1.3529 
  55   0.0000       0.074954         2.0396 
  56   0.0000       0.107185         2.9166 
  57   0.0000       0.143689         3.9100 
  58   0.0000       0.148695         4.0462 
  59   0.0000       0.164421         4.4741 
  60   0.0000       0.183249         4.9865 
  61   0.0000       0.196136         5.3371 
  62   0.0000       0.199546         5.4299 
  63   0.0000       0.218645         5.9496 
  64   0.0000       0.219567         5.9747 
  65   0.0000       0.231146         6.2898 
  66   0.0000       0.239816         6.5257 
  67   0.0000       0.250480         6.8159 
  68   0.0000       0.268631         7.3098 
  69   0.0000       0.277326         7.5464 
  70   0.0000       0.294677         8.0186 
  71   0.0000       0.319531         8.6949 
  72   0.0000       0.342306         9.3146 
  73   0.0000       0.365811         9.9542 
  74   0.0000       0.374077        10.1792 
  75   0.0000       0.384697        10.4681 
  76   0.0000       0.399062        10.8590 
  77   0.0000       0.412708        11.2304 
  78   0.0000       0.424459        11.5501 
  79   0.0000       0.452660        12.3175 
  80   0.0000       0.461794        12.5661 
  81   0.0000       0.478267        13.0143 
  82   0.0000       0.491565        13.3762 
  83   0.0000       0.498025        13.5520 
  84   0.0000       0.507978        13.8228 
  85   0.0000       0.529524        14.4091 
  86   0.0000       0.537456        14.6249 
  87   0.0000       0.545165        14.8347 
  88   0.0000       0.551857        15.0168 
  89   0.0000       0.568657        15.4739 
  90   0.0000       0.581382        15.8202 
  91   0.0000       0.583585        15.8801 
  92   0.0000       0.601406        16.3651 
  93   0.0000       0.608754        16.5650 
  94   0.0000       0.632635        17.2149 
  95   0.0000       0.647884        17.6298 
  96   0.0000       0.649797        17.6819 
  97   0.0000       0.658064        17.9068 
  98   0.0000       0.674571        18.3560 
  99   0.0000       0.681013        18.5313 
 100   0.0000       0.706248        19.2180 
 101   0.0000       0.719166        19.5695 
 102   0.0000       0.725175        19.7330 
 103   0.0000       0.727126        19.7861 
 104   0.0000       0.733224        19.9520 
 105   0.0000       0.744566        20.2607 
 106   0.0000       0.751495        20.4492 
 107   0.0000       0.758983        20.6530 
 108   0.0000       0.760688        20.6994 
 109   0.0000       0.784286        21.3415 
 110   0.0000       0.787668        21.4335 
 111   0.0000       0.802549        21.8385 
 112   0.0000       0.803654        21.8685 
 113   0.0000       0.828719        22.5506 
 114   0.0000       0.832729        22.6597 
 115   0.0000       0.834178        22.6991 
 116   0.0000       0.846053        23.0223 
 117   0.0000       0.866938        23.5906 
 118   0.0000       0.886170        24.1139 
 119   0.0000       0.904843        24.6220 
 120   0.0000       0.910627        24.7794 
 121   0.0000       0.925136        25.1742 
 122   0.0000       0.929807        25.3013 
 123   0.0000       0.976947        26.5841 
 124   0.0000       0.982160        26.7259 
 125   0.0000       1.021533        27.7973 
 126   0.0000       1.033306        28.1177 
 127   0.0000       1.059951        28.8427 
 128   0.0000       1.074075        29.2271 
 129   0.0000       1.091663        29.7057 
 130   0.0000       1.152596        31.3637 
 131   0.0000       1.175890        31.9976 
 132   0.0000       1.182505        32.1776 
 133   0.0000       1.202679        32.7266 
 134   0.0000       1.229816        33.4650 
 135   0.0000       1.233147        33.5556 
 136   0.0000       1.254540        34.1378 
 137   0.0000       1.280847        34.8536 
 138   0.0000       1.307710        35.5846 
 139   0.0000       1.318362        35.8745 
 140   0.0000       1.332651        36.2633 
 141   0.0000       1.341158        36.4948 
 142   0.0000       1.364392        37.1270 
 143   0.0000       1.372618        37.3508 
 144   0.0000       1.381354        37.5885 
 145   0.0000       1.390215        37.8297 
 146   0.0000       1.399375        38.0789 
 147   0.0000       1.401529        38.1375 
 148   0.0000       1.424756        38.7696 
 149   0.0000       1.467101        39.9219 
 150   0.0000       1.475308        40.1452 
 151   0.0000       1.518444        41.3189 
 152   0.0000       1.540765        41.9263 
 153   0.0000       1.545352        42.0512 
 154   0.0000       1.587807        43.2064 
 155   0.0000       1.602346        43.6021 
 156   0.0000       1.616963        43.9998 
 157   0.0000       1.623776        44.1852 
 158   0.0000       1.633388        44.4467 
 159   0.0000       1.657519        45.1034 
 160   0.0000       1.683121        45.8001 
 161   0.0000       1.702454        46.3261 
 162   0.0000       1.750482        47.6330 
 163   0.0000       1.773399        48.2567 
 164   0.0000       1.776144        48.3313 
 165   0.0000       1.813770        49.3552 
 166   0.0000       1.830912        49.8216 
 167   0.0000       1.837653        50.0051 
 168   0.0000       1.840920        50.0940 
 169   0.0000       1.843658        50.1685 
 170   0.0000       1.858041        50.5599 
 171   0.0000       1.872715        50.9592 
 172   0.0000       1.886144        51.3246 
 173   0.0000       1.900157        51.7059 
 174   0.0000       1.901352        51.7384 
 175   0.0000       1.913973        52.0818 
 176   0.0000       1.939799        52.7846 
 177   0.0000       1.949058        53.0366 
 178   0.0000       1.951501        53.1030 
 179   0.0000       1.979710        53.8706 
 180   0.0000       2.028510        55.1986 
 181   0.0000       2.039751        55.5044 
 182   0.0000       2.061261        56.0898 
 183   0.0000       2.069345        56.3098 
 184   0.0000       2.090457        56.8842 
 185   0.0000       2.105027        57.2807 
 186   0.0000       2.155093        58.6431 
 187   0.0000       2.164790        58.9069 
 188   0.0000       2.171192        59.0812 
 189   0.0000       2.193586        59.6905 
 190   0.0000       2.217668        60.3458 
 191   0.0000       2.228083        60.6292 
 192   0.0000       2.236657        60.8625 
 193   0.0000       2.247229        61.1502 
 194   0.0000       2.248110        61.1742 
 195   0.0000       2.272975        61.8508 
 196   0.0000       2.284656        62.1686 
 197   0.0000       2.300780        62.6074 
 198   0.0000       2.339522        63.6616 
 199   0.0000       2.349155        63.9238 
 200   0.0000       2.362570        64.2888 
 201   0.0000       2.382676        64.8359 
 202   0.0000       2.398079        65.2550 
 203   0.0000       2.404070        65.4181 
 204   0.0000       2.435581        66.2755 
 205   0.0000       2.443757        66.4980 
 206   0.0000       2.468783        67.1790 
 207   0.0000       2.504005        68.1374 
 208   0.0000       2.520205        68.5783 
 209   0.0000       2.599629        70.7395 
 210   0.0000       2.622227        71.3544 
 211   0.0000       2.659173        72.3598 
 212   0.0000       2.669882        72.6512 
 213   0.0000       2.712140        73.8011 
 214   0.0000       2.736149        74.4544 
 215   0.0000       2.749007        74.8043 
 216   0.0000       2.773204        75.4627 
 217   0.0000       2.782750        75.7225 
 218   0.0000       2.824550        76.8599 
 219   0.0000       2.828541        76.9685 
 220   0.0000       2.855109        77.6915 
 221   0.0000       2.869289        78.0773 
 222   0.0000       2.956668        80.4550 
 223   0.0000       2.986545        81.2680 
 224   0.0000       3.004225        81.7491 
 225   0.0000       3.015875        82.0661 
 226   0.0000       3.024826        82.3097 
 227   0.0000       3.044090        82.8339 
 228   0.0000       3.055300        83.1389 
 229   0.0000       3.106152        84.5227 
 230   0.0000       3.117217        84.8238 
 231   0.0000       3.146568        85.6225 
 232   0.0000       3.156729        85.8990 
 233   0.0000       3.176629        86.4405 
 234   0.0000       3.191930        86.8568 
 235   0.0000       3.218824        87.5887 
 236   0.0000       3.240715        88.1843 
 237   0.0000       3.242614        88.2360 
 238   0.0000       3.359180        91.4079 
 239   0.0000       3.407960        92.7353 
 240   0.0000       3.414625        92.9167 
 241   0.0000       3.422563        93.1327 
 242   0.0000       3.484687        94.8232 
 243   0.0000       3.563015        96.9546 
 244   0.0000       3.658558        99.5544 
 245   0.0000       3.681352       100.1747 
 246   0.0000       3.753048       102.1256 
 247   0.0000       3.892610       105.9233 
 248   0.0000       3.973211       108.1166 
 249   0.0000       4.013005       109.1994 

                    ********************************
                    * MULLIKEN POPULATION ANALYSIS *
                    ********************************

-----------------------
MULLIKEN ATOMIC CHARGES
-----------------------
   0 C :    0.105530
   1 N :   -0.229427
   2 C :    0.327472
   3 C :   -0.182970
   4 C :    0.144720
   5 N :   -0.164911
   6 O :   -0.201123
   7 H :    0.197686
   8 C :    0.101652
   9 C :   -0.122599
  10 C :    0.303799
  11 C :   -0.087931
  12 C :    0.007689
  13 C :   -0.060289
  14 H :    0.003991
  15 H :    0.015598
  16 H :    0.019573
  17 F :   -0.220556
  18 H :    0.026746
  19 F :   -0.178274
  20 H :    0.065780
  21 H :    0.061704
  22 H :    0.066138
Sum of atomic charges:   -0.0000000

--------------------------------
MULLIKEN REDUCED ORBITAL CHARGES
--------------------------------
  0 C s       :     2.991342  s :     2.991342
      pz      :     1.059082  p :     2.863832
      px      :     0.786346
      py      :     1.018404
      dz2     :     0.007487  d :     0.039297
      dxz     :     0.010959
      dyz     :     0.003705
      dx2y2   :     0.011357
      dxy     :     0.005788
  1 N s       :     3.390678  s :     3.390678
      pz      :     1.559980  p :     3.793419
      px      :     1.147358
      py      :     1.086081
      dz2     :     0.003120  d :     0.045330
      dxz     :     0.005907
      dyz     :     0.009522
      dx2y2   :     0.011577
      dxy     :     0.015204
  2 C s       :     3.030537  s :     3.030537
      pz      :     1.028189  p :     2.537837
      px      :     0.928327
      py      :     0.581321
      dz2     :     0.007703  d :     0.104154
      dxz     :     0.015401
      dyz     :     0.019102
      dx2y2   :     0.029951
      dxy     :     0.031997
  3 C s       :     3.110669  s :     3.110669
      pz      :     1.196247  p :     3.032589
      px      :     0.895507
      py      :     0.940836
      dz2     :     0.003545  d :     0.039712
      dxz     :     0.008496
      dyz     :     0.005352
      dx2y2   :     0.008593
      dxy     :     0.013726
  4 C s       :     3.026218  s :     3.026218
      pz      :     0.977750  p :     2.727488
      px      :     0.918059
      py      :     0.831680
      dz2     :     0.006817  d :     0.101574
      dxz     :     0.017493
      dyz     :     0.017871
      dx2y2   :     0.029432
      dxy     :     0.029961
  5 N s       :     3.560254  s :     3.560254
      pz      :     1.329450  p :     3.566631
      px      :     1.198138
      py      :     1.039043
      dz2     :     0.004501  d :     0.038026
      dxz     :     0.006693
      dyz     :     0.006380
      dx2y2   :     0.014995
      dxy     :     0.005458
  6 O s       :     3.670098  s :     3.670098
      pz      :     1.834338  p :     4.516732
      px      :     1.502060
      py      :     1.180334
      dz2     :     0.002065  d :     0.014292
      dxz     :     0.001718
      dyz     :     0.001464
      dx2y2   :     0.001943
      dxy     :     0.007102
  7 H s       :     0.733184  s :     0.733184
      pz      :     0.017670  p :     0.069130
      px      :     0.024074
      py      :     0.027386
  8 C s       :     3.021818  s :     3.021818
      pz      :     0.969348  p :     2.831179
      px      :     0.952766
      py      :     0.909065
      dz2     :     0.003203  d :     0.045350
      dxz     :     0.008017
      dyz     :     0.007618
      dx2y2   :     0.013738
      dxy     :     0.012774
  9 C s       :     3.300742  s :     3.300742
      pz      :     1.030475  p :     2.789442
      px      :     0.912764
      py      :     0.846203
      dz2     :     0.002688  d :     0.032415
      dxz     :     0.006379
      dyz     :     0.003036
      dx2y2   :     0.011313
      dxy     :     0.008998
 10 C s       :     2.969518  s :     2.969518
      pz      :     0.985502  p :     2.643152
      px      :     0.834073
      py      :     0.823576
      dz2     :     0.005893  d :     0.083531
      dxz     :     0.012353
      dyz     :     0.012270
      dx2y2   :     0.023693
      dxy     :     0.029322
 11 C s       :     3.214523  s :     3.214523
      pz      :     1.043647  p :     2.839752
      px      :     0.844555
      py      :     0.951550
      dz2     :     0.002646  d :     0.033656
      dxz     :     0.003107
      dyz     :     0.006438
      dx2y2   :     0.012567
      dxy     :     0.008897
 12 C s       :     3.137653  s :     3.137653
      pz      :     0.971400  p :     2.817489
      px      :     0.958385
      py      :     0.887704
      dz2     :     0.002553  d :     0.037168
      dxz     :     0.007845
      dyz     :     0.002970
      dx2y2   :     0.012288
      dxy     :     0.011513
 13 C s       :     3.202183  s :     3.202183
      pz      :     1.022221  p :     2.823838
      px      :     0.882715
      py      :     0.918902
      dz2     :     0.002564  d :     0.034269
      dxz     :     0.004676
      dyz     :     0.004355
      dx2y2   :     0.010318
      dxy     :     0.012356
 14 H s       :     0.971040  s :     0.971040
      pz      :     0.005044  p :     0.024968
      px      :     0.010080
      py      :     0.009845
 15 H s       :     0.961199  s :     0.961199
      pz      :     0.004601  p :     0.023203
      px      :     0.004162
      py      :     0.014440
 16 H s       :     0.956929  s :     0.956929
      pz      :     0.004932  p :     0.023498
      px      :     0.014758
      py      :     0.003808
 17 F s       :     3.892306  s :     3.892306
      pz      :     1.904076  p :     5.320342
      px      :     1.711060
      py      :     1.705205
      dz2     :     0.001088  d :     0.007908
      dxz     :     0.000939
      dyz     :     0.000962
      dx2y2   :     0.001639
      dxy     :     0.003281
 18 H s       :     0.948024  s :     0.948024
      pz      :     0.004794  p :     0.025230
      px      :     0.004366
      py      :     0.016070
 19 F s       :     3.895466  s :     3.895466
      pz      :     1.902650  p :     5.274261
      px      :     1.897313
      py      :     1.474298
      dz2     :     0.001157  d :     0.008547
      dxz     :     0.000031
      dyz     :     0.002175
      dx2y2   :     0.003444
      dxy     :     0.001741
 20 H s       :     0.911397  s :     0.911397
      pz      :     0.013585  p :     0.022823
      px      :     0.004156
      py      :     0.005081
 21 H s       :     0.914833  s :     0.914833
      pz      :     0.005887  p :     0.023463
      px      :     0.002959
      py      :     0.014617
 22 H s       :     0.910557  s :     0.910557
      pz      :     0.009533  p :     0.023306
      px      :     0.005507
      py      :     0.008266


                     *******************************
                     * LOEWDIN POPULATION ANALYSIS *
                     *******************************

----------------------
LOEWDIN ATOMIC CHARGES
----------------------
   0 C :    0.035216
   1 N :    0.056242
   2 C :    0.103600
   3 C :   -0.150750
   4 C :    0.032391
   5 N :   -0.166235
   6 O :   -0.039942
   7 H :    0.103183
   8 C :   -0.007010
   9 C :   -0.055550
  10 C :    0.093373
  11 C :   -0.066636
  12 C :   -0.013301
  13 C :   -0.045683
  14 H :    0.024117
  15 H :    0.032985
  16 H :    0.037447
  17 F :   -0.084218
  18 H :    0.038384
  19 F :   -0.041579
  20 H :    0.035615
  21 H :    0.037983
  22 H :    0.040368

-------------------------------
LOEWDIN REDUCED ORBITAL CHARGES
-------------------------------
  0 C s       :     2.825122  s :     2.825122
      pz      :     1.090818  p :     3.040618
      px      :     0.879342
      py      :     1.070458
      dz2     :     0.018671  d :     0.099045
      dxz     :     0.027683
      dyz     :     0.008966
      dx2y2   :     0.028844
      dxy     :     0.014880
  1 N s       :     3.039650  s :     3.039650
      pz      :     1.498027  p :     3.806082
      px      :     1.174543
      py      :     1.133511
      dz2     :     0.005859  d :     0.098026
      dxz     :     0.009766
      dyz     :     0.017509
      dx2y2   :     0.029511
      dxy     :     0.035381
  2 C s       :     2.824293  s :     2.824293
      pz      :     1.034670  p :     2.838925
      px      :     1.013737
      py      :     0.790518
      dz2     :     0.016309  d :     0.233182
      dxz     :     0.031577
      dyz     :     0.036395
      dx2y2   :     0.067179
      dxy     :     0.081721
  3 C s       :     2.837151  s :     2.837151
      pz      :     1.145386  p :     3.206219
      px      :     1.030427
      py      :     1.030407
      dz2     :     0.008668  d :     0.107380
      dxz     :     0.015525
      dyz     :     0.011460
      dx2y2   :     0.028292
      dxy     :     0.043435
  4 C s       :     2.824886  s :     2.824886
      pz      :     0.974702  p :     2.920433
      px      :     1.007401
      py      :     0.938330
      dz2     :     0.013816  d :     0.222290
      dxz     :     0.033649
      dyz     :     0.034219
      dx2y2   :     0.070407
      dxy     :     0.070199
  5 N s       :     3.255922  s :     3.255922
      pz      :     1.326914  p :     3.831738
      px      :     1.298486
      py      :     1.206338
      dz2     :     0.009392  d :     0.078575
      dxz     :     0.010510
      dyz     :     0.011673
      dx2y2   :     0.034498
      dxy     :     0.012503
  6 O s       :     3.400164  s :     3.400164
      pz      :     1.792423  p :     4.612302
      px      :     1.574992
      py      :     1.244888
      dz2     :     0.004078  d :     0.027475
      dxz     :     0.001532
      dyz     :     0.002815
      dx2y2   :     0.003878
      dxy     :     0.015172
  7 H s       :     0.719906  s :     0.719906
      pz      :     0.048213  p :     0.176911
      px      :     0.068001
      py      :     0.060696
  8 C s       :     2.829975  s :     2.829975
      pz      :     0.952491  p :     3.059697
      px      :     1.027717
      py      :     1.079490
      dz2     :     0.007494  d :     0.117337
      dxz     :     0.016343
      dyz     :     0.015620
      dx2y2   :     0.039924
      dxy     :     0.037957
  9 C s       :     2.852332  s :     2.852332
      pz      :     1.013405  p :     3.116058
      px      :     1.045788
      py      :     1.056865
      dz2     :     0.006741  d :     0.087160
      dxz     :     0.013085
      dyz     :     0.005109
      dx2y2   :     0.034025
      dxy     :     0.028201
 10 C s       :     2.846746  s :     2.846746
      pz      :     0.972634  p :     2.870009
      px      :     0.951591
      py      :     0.945784
      dz2     :     0.012822  d :     0.189872
      dxz     :     0.023920
      dyz     :     0.023728
      dx2y2   :     0.061156
      dxy     :     0.068247
 11 C s       :     2.854096  s :     2.854096
      pz      :     1.017754  p :     3.123148
      px      :     1.049548
      py      :     1.055846
      dz2     :     0.006718  d :     0.089392
      dxz     :     0.005181
      dyz     :     0.013331
      dx2y2   :     0.036261
      dxy     :     0.027901
 12 C s       :     2.848690  s :     2.848690
      pz      :     0.953368  p :     3.068802
      px      :     1.070560
      py      :     1.044875
      dz2     :     0.006141  d :     0.095809
      dxz     :     0.016527
      dyz     :     0.005143
      dx2y2   :     0.035150
      dxy     :     0.032847
 13 C s       :     2.845731  s :     2.845731
      pz      :     1.007504  p :     3.108826
      px      :     1.057498
      py      :     1.043824
      dz2     :     0.006225  d :     0.091126
      dxz     :     0.009177
      dyz     :     0.008641
      dx2y2   :     0.030784
      dxy     :     0.036299
 14 H s       :     0.903149  s :     0.903149
      pz      :     0.015860  p :     0.072734
      px      :     0.028309
      py      :     0.028566
 15 H s       :     0.898569  s :     0.898569
      pz      :     0.014225  p :     0.068446
      px      :     0.013688
      py      :     0.040532
 16 H s       :     0.891427  s :     0.891427
      pz      :     0.016170  p :     0.071126
      px      :     0.041739
      py      :     0.013217
 17 F s       :     3.725184  s :     3.725184
      pz      :     1.899091  p :     5.346892
      px      :     1.725836
      py      :     1.721966
      dz2     :     0.001773  d :     0.012142
      dxz     :     0.001312
      dyz     :     0.001344
      dx2y2   :     0.002410
      dxy     :     0.005304
 18 H s       :     0.884817  s :     0.884817
      pz      :     0.015929  p :     0.076798
      px      :     0.014870
      py      :     0.046000
 19 F s       :     3.716651  s :     3.716651
      pz      :     1.896366  p :     5.311515
      px      :     1.896318
      py      :     1.518831
      dz2     :     0.001902  d :     0.013413
      dxz     :     0.000042
      dyz     :     0.003160
      dx2y2   :     0.005757
      dxy     :     0.002552
 20 H s       :     0.898540  s :     0.898540
      pz      :     0.038615  p :     0.065846
      px      :     0.014168
      py      :     0.013062
 21 H s       :     0.894936  s :     0.894936
      pz      :     0.015665  p :     0.067081
      px      :     0.009683
      py      :     0.041733
 22 H s       :     0.893084  s :     0.893084
      pz      :     0.026090  p :     0.066548
      px      :     0.018073
      py      :     0.022385


                      *****************************
                      * MAYER POPULATION ANALYSIS *
                      *****************************

  NA   - Mulliken gross atomic population
  ZA   - Total nuclear charge
  QA   - Mulliken gross atomic charge
  VA   - Mayer's total valence
  BVA  - Mayer's bonded valence
  FA   - Mayer's free valence

  ATOM       NA         ZA         QA         VA         BVA        FA
  0 C      5.8945     6.0000     0.1055     3.8832     3.8832    -0.0000
  1 N      7.2294     7.0000    -0.2294     3.4041     3.4041     0.0000
  2 C      5.6725     6.0000     0.3275     3.8645     3.8645    -0.0000
  3 C      6.1830     6.0000    -0.1830     3.7706     3.7706    -0.0000
  4 C      5.8553     6.0000     0.1447     4.1823     4.1823     0.0000
  5 N      7.1649     7.0000    -0.1649     2.8853     2.8853     0.0000
  6 O      8.2011     8.0000    -0.2011     2.2558     2.2558     0.0000
  7 H      0.8023     1.0000     0.1977     1.0145     1.0145     0.0000
  8 C      5.8983     6.0000     0.1017     3.8249     3.8249     0.0000
  9 C      6.1226     6.0000    -0.1226     3.7747     3.7747     0.0000
 10 C      5.6962     6.0000     0.3038     3.8939     3.8939    -0.0000
 11 C      6.0879     6.0000    -0.0879     3.8287     3.8287     0.0000
 12 C      5.9923     6.0000     0.0077     3.8549     3.8549     0.0000
 13 C      6.0603     6.0000    -0.0603     3.8375     3.8375    -0.0000
 14 H      0.9960     1.0000     0.0040     1.0128     1.0128     0.0000
 15 H      0.9844     1.0000     0.0156     0.9853     0.9853     0.0000
 16 H      0.9804     1.0000     0.0196     0.9967     0.9967     0.0000
 17 F      9.2206     9.0000    -0.2206     1.1314     1.1314     0.0000
 18 H      0.9733     1.0000     0.0267     1.0411     1.0411    -0.0000
 19 F      9.1783     9.0000    -0.1783     1.2033     1.2033     0.0000
 20 H      0.9342     1.0000     0.0658     0.9928     0.9928    -0.0000
 21 H      0.9383     1.0000     0.0617     1.0063     1.0063     0.0000
 22 H      0.9339     1.0000     0.0661     1.0035     1.0035    -0.0000

  Mayer bond orders larger than 0.100000
B(  0-C ,  1-N ) :   0.9334 B(  0-C , 20-H ) :   0.9747 B(  0-C , 21-H ) :   0.9713 
B(  0-C , 22-H ) :   0.9722 B(  1-N ,  2-C ) :   1.2317 B(  1-N ,  5-N ) :   1.0780 
B(  2-C ,  3-C ) :   1.3886 B(  2-C , 19-F ) :   1.1129 B(  3-C ,  4-C ) :   1.2584 
B(  3-C ,  8-C ) :   1.0276 B(  4-C ,  5-N ) :   1.5830 B(  4-C ,  6-O ) :   1.2218 
B(  6-O ,  7-H ) :   0.9440 B(  8-C ,  9-C ) :   1.3354 B(  8-C , 13-C ) :   1.3636 
B(  9-C , 10-C ) :   1.3605 B(  9-C , 18-H ) :   0.9933 B( 10-C , 11-C ) :   1.3790 
B( 10-C , 17-F ) :   1.0484 B( 11-C , 12-C ) :   1.3590 B( 11-C , 16-H ) :   0.9962 
B( 12-C , 13-C ) :   1.4086 B( 12-C , 15-H ) :   0.9874 B( 13-C , 14-H ) :   0.9931 


-------
TIMINGS
-------

Total SCF time: 0 days 0 hours 3 min 26 sec 

Total time                  ....     206.851 sec
Sum of individual times     ....     206.624 sec  ( 99.9%)

Fock matrix formation       ....     203.922 sec  ( 98.6%)
  XC integration            ....       8.052 sec  (  3.9% of F)
    Basis function eval.    ....       2.329 sec  ( 28.9% of XC)
    Density eval.           ....       1.475 sec  ( 18.3% of XC)
    XC-Functional eval.     ....       1.938 sec  ( 24.1% of XC)
    XC-Potential eval.      ....       2.085 sec  ( 25.9% of XC)
Diagonalization             ....       0.054 sec  (  0.0%)
Density matrix formation    ....       0.017 sec  (  0.0%)
Population analysis         ....       0.007 sec  (  0.0%)
Initial guess               ....       0.684 sec  (  0.3%)
Orbital Transformation      ....       0.000 sec  (  0.0%)
Orbital Orthonormalization  ....       0.000 sec  (  0.0%)
DIIS solution               ....       0.018 sec  (  0.0%)
SOSCF solution              ....       0.045 sec  (  0.0%)
Grid generation             ....       1.876 sec  (  0.9%)


-------------------------------------------------------------------------------
                          DFT DISPERSION CORRECTION                            
                                                                               
                              DFTD3 V3.1  Rev 1                                
                              USING zero damping                               
-------------------------------------------------------------------------------
The omegaB97X-D3 functional is recognized. Fit by Chai et al.
Active option DFTDOPT                   ...         3   

molecular C6(AA) [au] = 6273.304213 


            DFT-D V3
 parameters
 s6 scaling factor         :     1.0000 
 rs6 scaling factor        :     1.2810 
 s8 scaling factor         :     1.0000 
 rs8 scaling factor        :     1.0940 
 Damping factor alpha6     :    14.0000 
 Damping factor alpha8     :    16.0000 
 ad hoc parameters k1-k3   :    16.0000     1.3333    -4.0000 

 Edisp/kcal,au: -5.093592274506  -0.008117155106 
 E6   /kcal   :  -2.222962746 
 E8   /kcal   :  -2.870629529 
 % E8         :  56.357662221 

-------------------------   ----------------
Dispersion correction           -0.008117155
-------------------------   ----------------


-------------------------   --------------------
FINAL SINGLE POINT ENERGY      -769.495658411071
-------------------------   --------------------

------------------------------------------------------------------------------
                         ORCA SCF GRADIENT CALCULATION
------------------------------------------------------------------------------

Gradient of the Kohn-Sham DFT energy:
Kohn-Sham wavefunction type      ... RKS
Hartree-Fock exchange scaling    ...    0.196
Number of operators              ...    1
Number of atoms                  ...   23
Basis set dimensions             ...  250
Integral neglect threshold       ... 2.5e-11
Integral primitive cutoff        ... 2.5e-12

Nuclear repulsion gradient       ... done
One Electron Gradient            ... done
Pre-screening matrix             ... done
Starting the two electron gradient:
Two electron gradient done
Exchange-correlation gradient    ... done
Dispersion correction            ... done

------------------
CARTESIAN GRADIENT
------------------

   1   C   :   -0.000487970   -0.001795871   -0.002085495
   2   N   :   -0.011307706    0.001559690    0.001676131
   3   C   :    0.004529370    0.009832608    0.000356186
   4   C   :    0.003322544   -0.000768367   -0.000311038
   5   C   :    0.014845446    0.004575600   -0.000161421
   6   N   :    0.000973272   -0.011792573   -0.000310320
   7   O   :   -0.001325741    0.000882531    0.000047771
   8   H   :    0.000033204    0.001647489   -0.000008822
   9   C   :   -0.002046847    0.001710656    0.000039900
  10   C   :   -0.002501625    0.002415162    0.000005121
  11   C   :   -0.012518719   -0.010091317   -0.000048124
  12   C   :    0.000042020   -0.002730739   -0.000016083
  13   C   :   -0.000307051   -0.001840663   -0.000047280
  14   C   :   -0.000100652    0.000263058    0.000021016
  15   H   :    0.006848299    0.006217791    0.000063668
  16   H   :   -0.002544076    0.009079144    0.000049676
  17   H   :   -0.009418308    0.001412803   -0.000000373
  18   F   :    0.007805490    0.007659292    0.000044545
  19   H   :    0.001055611   -0.009172866   -0.000053043
  20   F   :   -0.003152254   -0.011978529   -0.000077281
  21   H   :    0.002934849    0.000059499   -0.004977024
  22   H   :    0.000506878    0.005180145    0.001593511
  23   H   :    0.002813968   -0.002324543    0.004198780

Difference to translation invariance:
           :   -0.0000000000   -0.0000000000    0.0000000000

Norm of the cartesian gradient     ...    0.0407784910
RMS gradient                       ...    0.0049091534
MAX gradient                       ...    0.0148454458

-------
TIMINGS
-------

Total SCF gradient time            ...       75.292 sec

One electron gradient       ....       0.256 sec  (  0.3%)
Prescreening matrices       ....       0.143 sec  (  0.2%)
Two electron gradient       ....      68.445 sec  ( 90.9%)
XC gradient                 ....       6.293 sec  (  8.4%)
------------------------------------------------------------------------------
                         ORCA GEOMETRY RELAXATION STEP
------------------------------------------------------------------------------

Reading the OPT-File                    .... done
Getting information on internals        .... done
Copying old internal coords+grads       .... done
Making the new internal coordinates     .... (new redundants).... done
Validating the new internal coordinates .... (new redundants).... done
Calculating the B-matrix                .... done
Calculating the G,G- and P matrices     .... done
Transforming gradient to internals      .... done
Projecting the internal gradient        .... done
Number of atoms                         ....  23
Number of internal coordinates          .... 114
Current Energy                          ....  -769.495658411 Eh
Current gradient norm                   ....     0.040778491 Eh/bohr
Maximum allowed component of the step   ....  0.300
Current trust radius                    ....  0.300
Evaluating the initial hessian          ....  (Almloef) done
Projecting the Hessian                  .... done
Forming the augmented Hessian           .... done
Diagonalizing the augmented Hessian     .... done
Last element of RFO vector              ....  0.996000737
Lowest eigenvalues of augmented Hessian:
 -0.003548898  0.016636281  0.019262304  0.021742575  0.023183945
Length of the computed step             ....  0.089703765
The final length of the internal step   ....  0.089703765
Converting the step to cartesian space:
 Initial RMS(Int)=    0.0084015273
Transforming coordinates:
 Iter   0:  RMS(Cart)=    0.0236581035 RMS(Int)=    1.3157435715
 Iter   1:  RMS(Cart)=    0.0000812791 RMS(Int)=    0.0000419901
 Iter   2:  RMS(Cart)=    0.0000007245 RMS(Int)=    0.0000004561
 Iter   3:  RMS(Cart)=    0.0000000068 RMS(Int)=    0.0000000047
done
Storing new coordinates                 .... done

                                .--------------------.
          ----------------------|Geometry convergence|-------------------------
          Item                value                   Tolerance       Converged
          ---------------------------------------------------------------------
          RMS gradient        0.0038869532            0.0001000000      NO
          MAX gradient        0.0144997603            0.0003000000      NO
          RMS step            0.0084015273            0.0020000000      NO
          MAX step            0.0291271090            0.0040000000      NO
          ........................................................
          Max(Bonds)      0.0154      Max(Angles)    1.04
          Max(Dihed)        0.74      Max(Improp)    0.00
          ---------------------------------------------------------------------

The optimization has not yet converged - more geometry cycles are needed


    ---------------------------------------------------------------------------
                         Redundant Internal Coordinates
                            (Angstroem and degrees)

        Definition                    Value    dE/dq     Step     New-Value
    ----------------------------------------------------------------------------
     1. B(N   1,C   0)                1.4348 -0.005858  0.0065    1.4413   
     2. B(C   2,N   1)                1.3416 -0.000085  0.0001    1.3417   
     3. B(C   3,C   2)                1.3859  0.002245 -0.0018    1.3841   
     4. B(C   4,C   3)                1.4228 -0.004249  0.0040    1.4268   
     5. B(N   5,C   4)                1.3185  0.003574 -0.0026    1.3159   
     6. B(N   5,N   1)                1.3424 -0.003342  0.0029    1.3453   
     7. B(O   6,C   4)                1.3390  0.001581 -0.0012    1.3378   
     8. B(H   7,O   6)                0.9665  0.001180 -0.0012    0.9653   
     9. B(C   8,C   3)                1.4538 -0.014500  0.0154    1.4692   
    10. B(C   9,C   8)                1.3944 -0.009558  0.0082    1.4025   
    11. B(C  10,C   9)                1.3793 -0.007040  0.0056    1.3849   
    12. B(C  11,C  10)                1.3828 -0.004436  0.0036    1.3864   
    13. B(C  12,C  11)                1.3845 -0.008853  0.0073    1.3918   
    14. B(C  13,C  12)                1.3820 -0.010225  0.0084    1.3904   
    15. B(C  13,C   8)                1.3963 -0.009025  0.0079    1.4041   
    16. B(H  14,C  13)                1.0777 -0.009232  0.0128    1.0906   
    17. B(H  15,C  12)                1.0796 -0.009432  0.0132    1.0928   
    18. B(H  16,C  11)                1.0782 -0.009486  0.0132    1.0914   
    19. B(F  17,C  10)                1.3520  0.010938 -0.0096    1.3423   
    20. B(H  18,C   9)                1.0767 -0.009155  0.0127    1.0894   
    21. B(F  19,C   2)                1.3334  0.012233 -0.0101    1.3233   
    22. B(H  20,C   0)                1.0921 -0.005679  0.0083    1.1004   
    23. B(H  21,C   0)                1.0883 -0.005429  0.0079    1.0962   
    24. B(H  22,C   0)                1.0892 -0.005475  0.0079    1.0971   
    25. A(N   1,C   0,H  21)          109.10  0.000252   -0.09    109.01   
    26. A(H  20,C   0,H  22)          108.86  0.000094    0.11    108.97   
    27. A(N   1,C   0,H  20)          110.38 -0.001665    0.34    110.72   
    28. A(N   1,C   0,H  22)          108.90  0.000000    0.00    108.90   
    29. A(H  20,C   0,H  21)          109.52  0.000672   -0.12    109.40   
    30. A(H  21,C   0,H  22)          110.08  0.000642   -0.24    109.83   
    31. A(C   0,N   1,C   2)          128.53  0.001510   -0.20    128.33   
    32. A(C   2,N   1,N   5)          109.92 -0.003682    0.50    110.42   
    33. A(C   0,N   1,N   5)          121.53  0.002176   -0.30    121.23   
    34. A(N   1,C   2,F  19)          118.90 -0.001849    0.24    119.14   
    35. A(N   1,C   2,C   3)          110.04 -0.001229    0.17    110.21   
    36. A(C   3,C   2,F  19)          131.05  0.003077   -0.41    130.64   
    37. A(C   2,C   3,C   4)          101.45  0.005225   -0.70    100.75   
    38. A(C   2,C   3,C   8)          129.43  0.000574   -0.09    129.34   
    39. A(C   4,C   3,C   8)          129.12 -0.005799    0.79    129.91   
    40. A(C   3,C   4,N   5)          112.07 -0.007982    1.04    113.11   
    41. A(N   5,C   4,O   6)          120.83  0.002049   -0.26    120.57   
    42. A(C   3,C   4,O   6)          127.10  0.005933   -0.78    126.32   
    43. A(N   1,N   5,C   4)          106.52  0.007668   -1.01    105.51   
    44. A(C   4,O   6,H   7)          107.79  0.002096   -0.32    107.47   
    45. A(C   3,C   8,C   9)          119.99 -0.002638    0.35    120.34   
    46. A(C   9,C   8,C  13)          118.92  0.002262   -0.29    118.63   
    47. A(C   3,C   8,C  13)          121.09  0.000376   -0.06    121.03   
    48. A(C  10,C   9,H  18)          119.91  0.001893   -0.28    119.63   
    49. A(C   8,C   9,C  10)          119.11 -0.001392    0.18    119.28   
    50. A(C   8,C   9,H  18)          120.98 -0.000501    0.10    121.08   
    51. A(C   9,C  10,C  11)          122.55 -0.001373    0.15    122.70   
    52. A(C  11,C  10,F  17)          118.82  0.000484   -0.05    118.77   
    53. A(C   9,C  10,F  17)          118.63  0.000889   -0.10    118.53   
    54. A(C  12,C  11,H  16)          121.85 -0.001336    0.21    122.05   
    55. A(C  10,C  11,H  16)          120.14  0.000373   -0.06    120.08   
    56. A(C  10,C  11,C  12)          118.01  0.000963   -0.15    117.86   
    57. A(C  13,C  12,H  15)          119.67  0.000202   -0.03    119.63   
    58. A(C  11,C  12,H  15)          119.59  0.000432   -0.07    119.52   
    59. A(C  11,C  12,C  13)          120.74 -0.000634    0.10    120.85   
    60. A(C  12,C  13,H  14)          119.14 -0.000727    0.10    119.24   
    61. A(C   8,C  13,H  14)          120.19  0.000553   -0.10    120.08   
    62. A(C   8,C  13,C  12)          120.67  0.000174    0.00    120.68   
    63. D(N   5,N   1,C   0,H  22)     43.87 -0.000818    0.74     44.61   
    64. D(C   2,N   1,C   0,H  22)   -137.82 -0.000653    0.37   -137.46   
    65. D(N   5,N   1,C   0,H  20)    -75.58  0.000070    0.40    -75.18   
    66. D(C   2,N   1,C   0,H  21)    -17.66  0.000278    0.02    -17.64   
[...]
      dyz     :     0.009283
      dx2y2   :     0.011414
      dxy     :     0.014907
  2 C s       :     3.023562  s :     3.023562
      pz      :     1.019609  p :     2.540524
      px      :     0.929000
      py      :     0.591915
      dz2     :     0.007890  d :     0.107350
      dxz     :     0.015748
      dyz     :     0.020057
      dx2y2   :     0.030830
      dxy     :     0.032825
  3 C s       :     3.110039  s :     3.110039
      pz      :     1.199580  p :     3.035333
      px      :     0.895202
      py      :     0.940551
      dz2     :     0.003519  d :     0.038800
      dxz     :     0.008326
      dyz     :     0.005065
      dx2y2   :     0.008181
      dxy     :     0.013708
  4 C s       :     3.031544  s :     3.031544
      pz      :     0.973759  p :     2.728145
      px      :     0.918991
      py      :     0.835395
      dz2     :     0.006882  d :     0.102343
      dxz     :     0.018148
      dyz     :     0.017579
      dx2y2   :     0.029159
      dxy     :     0.030576
  5 N s       :     3.563970  s :     3.563970
      pz      :     1.332583  p :     3.555365
      px      :     1.193499
      py      :     1.029283
      dz2     :     0.004500  d :     0.038060
      dxz     :     0.006718
      dyz     :     0.006222
      dx2y2   :     0.015169
      dxy     :     0.005451
  6 O s       :     3.670195  s :     3.670195
      pz      :     1.832777  p :     4.515930
      px      :     1.501034
      py      :     1.182119
      dz2     :     0.002073  d :     0.014382
      dxz     :     0.001771
      dyz     :     0.001419
      dx2y2   :     0.001894
      dxy     :     0.007223
  7 H s       :     0.735148  s :     0.735148
      pz      :     0.017788  p :     0.069257
      px      :     0.023883
      py      :     0.027587
  8 C s       :     3.027476  s :     3.027476
      pz      :     0.968637  p :     2.836681
      px      :     0.951219
      py      :     0.916825
      dz2     :     0.003165  d :     0.044078
      dxz     :     0.007749
      dyz     :     0.007415
      dx2y2   :     0.013295
      dxy     :     0.012454
  9 C s       :     3.295774  s :     3.295774
      pz      :     1.032958  p :     2.798492
      px      :     0.911112
      py      :     0.854422
      dz2     :     0.002684  d :     0.031669
      dxz     :     0.006234
      dyz     :     0.002949
      dx2y2   :     0.011046
      dxy     :     0.008757
 10 C s       :     2.974357  s :     2.974357
      pz      :     0.983203  p :     2.647079
      px      :     0.837081
      py      :     0.826794
      dz2     :     0.006049  d :     0.085456
      dxz     :     0.012585
      dyz     :     0.012631
      dx2y2   :     0.024367
      dxy     :     0.029824
 11 C s       :     3.215514  s :     3.215514
      pz      :     1.046037  p :     2.846900
      px      :     0.850429
      py      :     0.950434
      dz2     :     0.002645  d :     0.032947
      dxz     :     0.003055
      dyz     :     0.006300
      dx2y2   :     0.012250
      dxy     :     0.008697
 12 C s       :     3.144320  s :     3.144320
      pz      :     0.971937  p :     2.821814
      px      :     0.954310
      py      :     0.895567
      dz2     :     0.002550  d :     0.036172
      dxz     :     0.007689
      dyz     :     0.002892
      dx2y2   :     0.011868
      dxy     :     0.011174
 13 C s       :     3.201322  s :     3.201322
      pz      :     1.024767  p :     2.828484
      px      :     0.883624
      py      :     0.920093
      dz2     :     0.002554  d :     0.033366
      dxz     :     0.004551
      dyz     :     0.004269
      dx2y2   :     0.010105
      dxy     :     0.011887
 14 H s       :     0.963517  s :     0.963517
      pz      :     0.004888  p :     0.024346
      px      :     0.009892
      py      :     0.009567
 15 H s       :     0.954018  s :     0.954018
      pz      :     0.004440  p :     0.022579
      px      :     0.003949
      py      :     0.014189
 16 H s       :     0.949953  s :     0.949953
      pz      :     0.004760  p :     0.022891
      px      :     0.014515
      py      :     0.003615
 17 F s       :     3.886997  s :     3.886997
      pz      :     1.900003  p :     5.311980
      px      :     1.709531
      py      :     1.702446
      dz2     :     0.001123  d :     0.008281
      dxz     :     0.001000
      dyz     :     0.001030
      dx2y2   :     0.001744
      dxy     :     0.003384
 18 H s       :     0.940676  s :     0.940676
      pz      :     0.004620  p :     0.024491
      px      :     0.004127
      py      :     0.015745
 19 F s       :     3.889617  s :     3.889617
      pz      :     1.898148  p :     5.267039
      px      :     1.897409
      py      :     1.471483
      dz2     :     0.001191  d :     0.008929
      dxz     :     0.000032
      dyz     :     0.002314
      dx2y2   :     0.003565
      dxy     :     0.001827
 20 H s       :     0.906964  s :     0.906964
      pz      :     0.011899  p :     0.022432
      px      :     0.004803
      py      :     0.005730
 21 H s       :     0.914058  s :     0.914058
      pz      :     0.005111  p :     0.023485
      px      :     0.002925
      py      :     0.015450
 22 H s       :     0.907082  s :     0.907082
      pz      :     0.011527  p :     0.022443
      px      :     0.004753
      py      :     0.006162


                     *******************************
                     * LOEWDIN POPULATION ANALYSIS *
                     *******************************

----------------------
LOEWDIN ATOMIC CHARGES
----------------------
   0 C :    0.032644
   1 N :    0.050767
   2 C :    0.098190
   3 C :   -0.154028
   4 C :    0.032306
   5 N :   -0.166014
   6 O :   -0.040292
   7 H :    0.101391
   8 C :   -0.004962
   9 C :   -0.059742
  10 C :    0.085176
  11 C :   -0.071126
  12 C :   -0.016103
  13 C :   -0.049645
  14 H :    0.026566
  15 H :    0.035475
  16 H :    0.040079
  17 F :   -0.070511
  18 H :    0.041376
  19 F :   -0.027835
  20 H :    0.039097
  21 H :    0.038123
  22 H :    0.039069

-------------------------------
LOEWDIN REDUCED ORBITAL CHARGES
-------------------------------
  0 C s       :     2.832616  s :     2.832616
      pz      :     1.090835  p :     3.037620
      px      :     0.879531
      py      :     1.067253
      dz2     :     0.017767  d :     0.097120
      dxz     :     0.029944
      dyz     :     0.006688
      dx2y2   :     0.029630
      dxy     :     0.013092
  1 N s       :     3.043210  s :     3.043210
      pz      :     1.504762  p :     3.809934
      px      :     1.173937
      py      :     1.131235
      dz2     :     0.005844  d :     0.096089
      dxz     :     0.009608
      dyz     :     0.017041
      dx2y2   :     0.029081
      dxy     :     0.034516
  2 C s       :     2.821281  s :     2.821281
      pz      :     1.025309  p :     2.839917
      px      :     1.015611
      py      :     0.798997
      dz2     :     0.016778  d :     0.240613
      dxz     :     0.032203
      dyz     :     0.038497
      dx2y2   :     0.069263
      dxy     :     0.083871
  3 C s       :     2.841159  s :     2.841159
      pz      :     1.150640  p :     3.208552
      px      :     1.026949
      py      :     1.030962
      dz2     :     0.008566  d :     0.104317
      dxz     :     0.014993
      dyz     :     0.010913
      dx2y2   :     0.026939
      dxy     :     0.042906
  4 C s       :     2.826481  s :     2.826481
      pz      :     0.970203  p :     2.917541
      px      :     1.010189
      py      :     0.937149
      dz2     :     0.013968  d :     0.223673
      dxz     :     0.034949
      dyz     :     0.033505
      dx2y2   :     0.069467
      dxy     :     0.071784
  5 N s       :     3.262207  s :     3.262207
      pz      :     1.330461  p :     3.825720
      px      :     1.298590
      py      :     1.196670
      dz2     :     0.009413  d :     0.078086
      dxz     :     0.010419
      dyz     :     0.011343
      dx2y2   :     0.034698
      dxy     :     0.012213
  6 O s       :     3.401160  s :     3.401160
      pz      :     1.790911  p :     4.611556
      px      :     1.574284
      py      :     1.246361
      dz2     :     0.004109  d :     0.027576
      dxz     :     0.001606
      dyz     :     0.002752
      dx2y2   :     0.003760
      dxy     :     0.015350
  7 H s       :     0.721141  s :     0.721141
      pz      :     0.048484  p :     0.177468
      px      :     0.067682
      py      :     0.061301
  8 C s       :     2.837311  s :     2.837311
      pz      :     0.953388  p :     3.054481
      px      :     1.023305
      py      :     1.077787
      dz2     :     0.007288  d :     0.113170
      dxz     :     0.015608
      dyz     :     0.015100
      dx2y2   :     0.038460
      dxy     :     0.036714
  9 C s       :     2.859494  s :     2.859494
      pz      :     1.016526  p :     3.115467
      px      :     1.043802
      py      :     1.055140
      dz2     :     0.006596  d :     0.084781
      dxz     :     0.012701
      dyz     :     0.004909
      dx2y2   :     0.033132
      dxy     :     0.027442
 10 C s       :     2.847391  s :     2.847391
      pz      :     0.970504  p :     2.873323
      px      :     0.954064
      py      :     0.948755
      dz2     :     0.013152  d :     0.194109
      dxz     :     0.024422
      dyz     :     0.024498
      dx2y2   :     0.062884
      dxy     :     0.069153
 11 C s       :     2.860981  s :     2.860981
      pz      :     1.020848  p :     3.122941
      px      :     1.047534
      py      :     1.054559
      dz2     :     0.006595  d :     0.087204
      dxz     :     0.005051
      dyz     :     0.012953
      dx2y2   :     0.035263
      dxy     :     0.027342
 12 C s       :     2.856498  s :     2.856498
      pz      :     0.955056  p :     3.066770
      px      :     1.068312
      py      :     1.043402
      dz2     :     0.005988  d :     0.092835
      dxz     :     0.016071
      dyz     :     0.004966
      dx2y2   :     0.033989
      dxy     :     0.031821
 13 C s       :     2.853514  s :     2.853514
      pz      :     1.010537  p :     3.107904
      px      :     1.055282
      py      :     1.042085
      dz2     :     0.006064  d :     0.088227
      dxz     :     0.008856
      dyz     :     0.008381
      dx2y2   :     0.030072
      dxy     :     0.034854
 14 H s       :     0.902762  s :     0.902762
      pz      :     0.015181  p :     0.070672
      px      :     0.027751
      py      :     0.027740
 15 H s       :     0.898171  s :     0.898171
      pz      :     0.013551  p :     0.066355
      px      :     0.012857
      py      :     0.039946
 16 H s       :     0.890938  s :     0.890938
      pz      :     0.015418  p :     0.068983
      px      :     0.041124
      py      :     0.012441
 17 F s       :     3.716814  s :     3.716814
      pz      :     1.894285  p :     5.340825
      px      :     1.725777
      py      :     1.720763
      dz2     :     0.001858  d :     0.012871
      dxz     :     0.001407
      dyz     :     0.001447
      dx2y2   :     0.002603
      dxy     :     0.005556
 18 H s       :     0.884430  s :     0.884430
      pz      :     0.015206  p :     0.074194
      px      :     0.013818
      py      :     0.045170
 19 F s       :     3.707880  s :     3.707880
      pz      :     1.890989  p :     5.305803
      px      :     1.894509
      py      :     1.520305
      dz2     :     0.001985  d :     0.014152
      dxz     :     0.000043
      dyz     :     0.003375
      dx2y2   :     0.006033
      dxy     :     0.002716
 20 H s       :     0.895957  s :     0.895957
      pz      :     0.033703  p :     0.064946
      px      :     0.016082
      py      :     0.015162
 21 H s       :     0.895703  s :     0.895703
      pz      :     0.013145  p :     0.066175
      px      :     0.009365
      py      :     0.043664
 22 H s       :     0.895959  s :     0.895959
      pz      :     0.032677  p :     0.064973
      px      :     0.015886
      py      :     0.016410


                      *****************************
                      * MAYER POPULATION ANALYSIS *
                      *****************************

  NA   - Mulliken gross atomic population
  ZA   - Total nuclear charge
  QA   - Mulliken gross atomic charge
  VA   - Mayer's total valence
  BVA  - Mayer's bonded valence
  FA   - Mayer's free valence

  ATOM       NA         ZA         QA         VA         BVA        FA
  0 C      5.9075     6.0000     0.0925     3.8830     3.8830     0.0000
  1 N      7.2388     7.0000    -0.2388     3.3934     3.3934    -0.0000
  2 C      5.6714     6.0000     0.3286     3.8808     3.8808    -0.0000
  3 C      6.1842     6.0000    -0.1842     3.7701     3.7701    -0.0000
  4 C      5.8620     6.0000     0.1380     4.1919     4.1919    -0.0000
  5 N      7.1574     7.0000    -0.1574     2.8747     2.8747     0.0000
  6 O      8.2005     8.0000    -0.2005     2.2586     2.2586     0.0000
  7 H      0.8044     1.0000     0.1956     1.0155     1.0155     0.0000
  8 C      5.9082     6.0000     0.0918     3.8392     3.8392    -0.0000
  9 C      6.1259     6.0000    -0.1259     3.7832     3.7832     0.0000
 10 C      5.7069     6.0000     0.2931     3.9134     3.9134     0.0000
 11 C      6.0954     6.0000    -0.0954     3.8303     3.8303    -0.0000
 12 C      6.0023     6.0000    -0.0023     3.8604     3.8604     0.0000
 13 C      6.0632     6.0000    -0.0632     3.8437     3.8437    -0.0000
 14 H      0.9879     1.0000     0.0121     1.0113     1.0113     0.0000
 15 H      0.9766     1.0000     0.0234     0.9851     0.9851    -0.0000
 16 H      0.9728     1.0000     0.0272     0.9959     0.9959    -0.0000
 17 F      9.2073     9.0000    -0.2073     1.1456     1.1456    -0.0000
 18 H      0.9652     1.0000     0.0348     1.0373     1.0373    -0.0000
 19 F      9.1656     9.0000    -0.1656     1.2170     1.2170     0.0000
 20 H      0.9294     1.0000     0.0706     0.9950     0.9950     0.0000
 21 H      0.9375     1.0000     0.0625     1.0073     1.0073     0.0000
 22 H      0.9295     1.0000     0.0705     0.9951     0.9951     0.0000

  Mayer bond orders larger than 0.100000
B(  0-C ,  1-N ) :   0.9331 B(  0-C , 20-H ) :   0.9732 B(  0-C , 21-H ) :   0.9715 
B(  0-C , 22-H ) :   0.9733 B(  1-N ,  2-C ) :   1.2316 B(  1-N ,  5-N ) :   1.0666 
B(  2-C ,  3-C ) :   1.3955 B(  2-C , 19-F ) :   1.1245 B(  3-C ,  4-C ) :   1.2564 
B(  3-C ,  8-C ) :   1.0214 B(  4-C ,  5-N ) :   1.5904 B(  4-C ,  6-O ) :   1.2270 
B(  6-O ,  7-H ) :   0.9464 B(  8-C ,  9-C ) :   1.3419 B(  8-C , 13-C ) :   1.3667 
B(  9-C , 10-C ) :   1.3625 B(  9-C , 18-H ) :   0.9869 B( 10-C , 11-C ) :   1.3808 
B( 10-C , 17-F ) :   1.0588 B( 11-C , 12-C ) :   1.3605 B( 11-C , 16-H ) :   0.9910 
B( 12-C , 13-C ) :   1.4118 B( 12-C , 15-H ) :   0.9835 B( 13-C , 14-H ) :   0.9877 


-------
TIMINGS
-------

Total SCF time: 0 days 0 hours 1 min 25 sec 

Total time                  ....      85.072 sec
Sum of individual times     ....      84.839 sec  ( 99.7%)

Fock matrix formation       ....      82.904 sec  ( 97.5%)
  XC integration            ....       4.270 sec  (  5.2% of F)
    Basis function eval.    ....       1.245 sec  ( 29.1% of XC)
    Density eval.           ....       0.801 sec  ( 18.8% of XC)
    XC-Functional eval.     ....       1.068 sec  ( 25.0% of XC)
    XC-Potential eval.      ....       1.037 sec  ( 24.3% of XC)
Diagonalization             ....       0.009 sec  (  0.0%)
Density matrix formation    ....       0.008 sec  (  0.0%)
Population analysis         ....       0.008 sec  (  0.0%)
Initial guess               ....       0.009 sec  (  0.0%)
Orbital Transformation      ....       0.000 sec  (  0.0%)
Orbital Orthonormalization  ....       0.006 sec  (  0.0%)
DIIS solution               ....       0.002 sec  (  0.0%)
SOSCF solution              ....       0.029 sec  (  0.0%)
Grid generation             ....       1.871 sec  (  2.2%)


-------------------------------------------------------------------------------
                          DFT DISPERSION CORRECTION                            
                                                                               
                              DFTD3 V3.1  Rev 1                                
                              USING zero damping                               
-------------------------------------------------------------------------------
The omegaB97X-D3 functional is recognized. Fit by Chai et al.
Active option DFTDOPT                   ...         3   

molecular C6(AA) [au] = 6277.303988 


            DFT-D V3
 parameters
 s6 scaling factor         :     1.0000 
 rs6 scaling factor        :     1.2810 
 s8 scaling factor         :     1.0000 
 rs8 scaling factor        :     1.0940 
 Damping factor alpha6     :    14.0000 
 Damping factor alpha8     :    16.0000 
 ad hoc parameters k1-k3   :    16.0000     1.3333    -4.0000 

 Edisp/kcal,au: -5.074914035531  -0.008087389440 
 E6   /kcal   :  -2.211486410 
 E8   /kcal   :  -2.863427626 
 % E8         :  56.423174967 

-------------------------   ----------------
Dispersion correction           -0.008087389
-------------------------   ----------------


-------------------------   --------------------
FINAL SINGLE POINT ENERGY      -769.497877355608
-------------------------   --------------------

                                *** OPTIMIZATION RUN DONE ***

                            ***************************************
                            *     ORCA property calculations      *
                            ***************************************

                                    ---------------------
                                    Active property flags
                                    ---------------------
   (+) Dipole Moment


------------------------------------------------------------------------------
                       ORCA ELECTRIC PROPERTIES CALCULATION
------------------------------------------------------------------------------

Dipole Moment Calculation                       ... on
Quadrupole Moment Calculation                   ... off
Polarizability Calculation                      ... off
GBWName                                         ... 023237862.gbw
Electron density file                           ... 023237862.scfp
The origin for moment calculation is the CENTER OF MASS  = (-0.000697,  0.006057 -0.005559)

-------------
DIPOLE MOMENT
-------------
                                X             Y             Z
Electronic contribution:      6.27889       1.79174      -0.18474
Nuclear contribution   :     -7.70678      -2.26188       0.19229
                        -----------------------------------------
Total Dipole Moment    :     -1.42789      -0.47014       0.00755
                        -----------------------------------------
Magnitude (a.u.)       :      1.50331
Magnitude (Debye)      :      3.82111



--------------------
Rotational spectrum 
--------------------
 
Rotational constants in cm-1:     0.041680     0.012305     0.009521 
Rotational constants in MHz :  1249.538770   368.888266   285.427643 

 Dipole components along the rotational axes: 
x,y,z [a.u.] :     1.424929    -0.479020     0.007849 
x,y,z [Debye]:     3.621883    -1.217572     0.019950 

 

Timings for individual modules:

Sum of individual times         ...     2533.152 sec (=  42.219 min)
GTO integral calculation        ...        3.845 sec (=   0.064 min)   0.2 %
SCF iterations                  ...     1548.325 sec (=  25.805 min)  61.1 %
SCF Gradient evaluation         ...      979.715 sec (=  16.329 min)  38.7 %
Geometry relaxation             ...        1.267 sec (=   0.021 min)   0.1 %
                             ****ORCA TERMINATED NORMALLY****
TOTAL RUN TIME: 0 days 0 hours 42 minutes 14 seconds 919 msec
