
                                 *****************
                                 * O   R   C   A *
                                 *****************

           --- An Ab Initio, DFT and Semiempirical electronic structure package ---

                  #######################################################
                  #                        -***-                        #
                  #          Department of theory and spectroscopy      #
                  #               Directorship: Frank Neese             #
                  #        Max Planck Institute fuer Kohlenforschung    #
                  #                Kaiser Wilhelm Platz 1               #
                  #                 D-45470 Muelheim/Ruhr               #
                  #                      Germany                        #
                  #                                                     #
                  #                  All rights reserved                #
                  #                        -***-                        #
                  #######################################################


                         Program Version 4.2.0 -  RELEASE  -


 With contributions from (in alphabetic order):
   Daniel Aravena         : Magnetic Suceptibility
   Michael Atanasov       : Ab Initio Ligand Field Theory (pilot matlab implementation)
   Alexander A. Auer      : GIAO ZORA, VPT2
   Ute Becker             : Parallelization
   Giovanni Bistoni       : ED, misc. LED, open-shell LED, HFLED
   Martin Brehm           : Molecular dynamics
   Dmytro Bykov           : SCF Hessian
   Vijay G. Chilkuri      : MRCI spin determinant printing, contributions to CSF-ICE
   Dipayan Datta          : RHF DLPNO-CCSD density
   Achintya Kumar Dutta   : EOM-CC, STEOM-CC
   Dmitry Ganyushin       : Spin-Orbit,Spin-Spin,Magnetic field MRCI
   Miquel Garcia          : C-PCM Hessian, Gaussian charge scheme
   Yang Guo               : DLPNO-NEVPT2, CIM, IAO-localization
   Andreas Hansen         : Spin unrestricted coupled pair/coupled cluster methods
   Benjamin Helmich-Paris : CASSCF linear response (MC-RPA)
   Lee Huntington         : MR-EOM, pCC
   Robert Izsak           : Overlap fitted RIJCOSX, COSX-SCS-MP3, EOM
   Christian Kollmar      : KDIIS, OOCD, Brueckner-CCSD(T), CCSD density
   Simone Kossmann        : Meta GGA functionals, TD-DFT gradient, OOMP2, MP2 Hessian
   Martin Krupicka        : AUTO-CI
   Lucas Lang             : DCDCAS
   Dagmar Lenk            : GEPOL surface, SMD
   Dimitrios Liakos       : Extrapolation schemes; Compound Job, initial MDCI parallelization
   Dimitrios Manganas     : Further ROCIS development; embedding schemes
   Dimitrios Pantazis     : SARC Basis sets
   Taras Petrenko         : DFT Hessian,TD-DFT gradient, ASA, ECA, R-Raman, ABS, FL, XAS/XES, NRVS
   Peter Pinski           : DLPNO-MP2, DLPNO-MP2 Gradient
   Christoph Reimann      : Effective Core Potentials
   Marius Retegan         : Local ZFS, SOC
   Christoph Riplinger    : Optimizer, TS searches, QM/MM, DLPNO-CCSD(T), (RO)-DLPNO pert. Triples
   Tobias Risthaus        : Range-separated hybrids, TD-DFT gradient, RPA, STAB
   Michael Roemelt        : Original ROCIS implementation
   Masaaki Saitow         : Open-shell DLPNO-CCSD energy and density
   Barbara Sandhoefer     : DKH picture change effects
   Avijit Sen             : IP-ROCIS
   Kantharuban Sivalingam : CASSCF convergence, NEVPT2, FIC-MRCI
   Bernardo de Souza      : ESD, SOC TD-DFT
   Georgi Stoychev        : AutoAux, RI-MP2 NMR
   Willem Van den Heuvel  : Paramagnetic NMR
   Boris Wezisla          : Elementary symmetry handling
   Frank Wennmohs         : Technical directorship


 We gratefully acknowledge several colleagues who have allowed us to
 interface, adapt or use parts of their codes:
   Stefan Grimme, W. Hujo, H. Kruse,             : VdW corrections, initial TS optimization,
                  C. Bannwarth                     DFT functionals, gCP, sTDA/sTD-DF
   Ed Valeev, F. Pavosevic, A. Kumar             : LibInt (2-el integral package), F12 methods
   Garnet Chan, S. Sharma, J. Yang, R. Olivares  : DMRG
   Ulf Ekstrom                                   : XCFun DFT Library
   Mihaly Kallay                                 : mrcc  (arbitrary order and MRCC methods)
   Andreas Klamt, Michael Diedenhofen            : otool_cosmo (COSMO solvation model)
   Jiri Pittner, Ondrej Demel                    : Mk-CCSD
   Frank Weinhold                                : gennbo (NPA and NBO analysis)
   Christopher J. Cramer and Donald G. Truhlar   : smd solvation model
   Lars Goerigk                                  : TD-DFT with DH, B97 family of functionals
   V. Asgeirsson, H. Jonsson                     : NEB implementation
   FAccTs GmbH                                   : IRC, NEB, NEB-TS, Multilevel, MM, QM/MM, CI optimization
   S Lehtola, MJT Oliveira, MAL Marques          : LibXC Library


 Your calculation uses the libint2 library for the computation of 2-el integrals
 For citations please refer to: http://libint.valeyev.net

 Your ORCA version has been built with support for libXC version: 4.2.3
 For citations please refer to: https://tddft.org/programs/libxc/

 This ORCA versions uses:
   CBLAS   interface :  Fast vector & matrix operations
   LAPACKE interface :  Fast linear algebra routines
   SCALAPACK package :  Parallel linear algebra routines


Your calculation utilizes the atom-pairwise dispersion correction
with the zero-damping scheme (D30)
Cite in your paper:
S.Grimme, J.Antony, S.Ehrlich and H.Krieg, J.Chem.Phys., 132, (2010), 154104 
   

XCFun DFT library Copyright 2009-2010 Ulf Ekstrom and contributors.
See http://admol.org/xcfun for more information. This is free soft-
ware; see the source code for copying conditions. There is ABSOLUTELY
NO WARRANTY; not even for MERCHANTABILITY or FITNESS FOR A PARTICULAR
PURPOSE. For details see the documentation. Scientific users of this 
library should cite U. Ekstrom, L. Visscher, R. Bast, A. J. Thorvald-
sen and K. Ruud; J.Chem.Theor.Comp. 2010, DOI: 10.1021/ct100117s
XCFun Version 0.99 
----- Orbital basis set information -----
Your calculation utilizes the basis: def2-SVP
   F. Weigend and R. Ahlrichs, Phys. Chem. Chem. Phys. 7, 3297 (2005).

================================================================================
                                        WARNINGS
                       Please study these warnings very carefully!
================================================================================


WARNING: Geometry Optimization
  ===> : Switching off AutoStart
         For restart on a previous wavefunction, please use MOREAD

INFO   : the flag for use of LIBINT has been found!

================================================================================
                                       INPUT FILE
================================================================================
NAME = 059627639.inp
|  1> # ORCA input file
|  2> # -49.77801792
|  3> ! wB97X-D3 def2-SVP Opt
|  4> * xyz 0 1
|  5>    C       -5.02910        -1.25950         0.36130
|  6>    H       -6.11080        -1.27900         0.24660
|  7>    H       -4.61460        -2.14850        -0.10950
|  8>    H       -4.79660        -1.29420         1.42280
|  9>    C       -4.45030         0.00260        -0.28170
| 10>    C       -2.94300         0.00080        -0.20800
| 11>    C       -2.18030         0.01130        -1.36830
| 12>    C       -0.79850         0.01070        -1.31410
| 13>    C       -0.14160        -0.00060        -0.09090
| 14>    C       -0.90030        -0.01140         1.07320
| 15>    C       -2.28070        -0.01060         1.01390
| 16>    H       -2.84640        -0.01880         1.93420
| 17>    H       -0.39920        -0.02010         2.03140
| 18>    C        1.33830        -0.00080        -0.02710
| 19>    C        2.03240         1.20880         0.00630
| 20>    C        3.41700         1.19230         0.06900
| 21>    C        4.12470        -0.00090         0.09930
| 22>    C        3.41760        -1.19370         0.06430
| 23>    C        2.03260        -1.21000         0.00160
| 24>    C        1.28030        -2.50710        -0.03350
| 25>    H        1.96440        -3.35180        -0.01330
| 26>    H        0.60730        -2.58040         0.82020
| 27>    H        0.67130        -2.56990        -0.93460
| 28>    H        3.95670        -2.13080         0.08750
| 29>    C        5.62350         0.00260         0.14470
| 30>    H        6.00120        -0.91710         0.58550
| 31>    H        6.02710         0.08430        -0.86530
| 32>    H        5.99160         0.84820         0.72180
| 33>    H        3.95680         2.12900         0.09600
| 34>    C        1.27960         2.50560        -0.02400
| 35>    H        1.96270         3.35050         0.01640
| 36>    H        0.68430         2.57910        -0.93350
| 37>    H        0.59370         2.56800         0.82020
| 38>    H       -0.21990         0.01890        -2.22750
| 39>    H       -2.67470         0.02010        -2.33020
| 40>    C       -5.02550         1.25890         0.37580
| 41>    H       -4.61040         2.15200        -0.08650
| 42>    H       -4.79050         1.28180         1.43710
| 43>    H       -6.10750         1.28150         0.26360
| 44>    H       -4.73950         0.00900        -1.33890
| 45> *
| 46> 
| 47>                          ****END OF INPUT****
================================================================================

                       *****************************
                       * Geometry Optimization Run *
                       *****************************

Geometry optimization settings:
Update method            Update   .... BFGS
Choice of coordinates    CoordSys .... Z-matrix Internals
Initial Hessian          InHess   .... Almoef's Model

Convergence Tolerances:
Energy Change            TolE     ....  5.0000e-06 Eh
Max. Gradient            TolMAXG  ....  3.0000e-04 Eh/bohr
RMS Gradient             TolRMSG  ....  1.0000e-04 Eh/bohr
Max. Displacement        TolMAXD  ....  4.0000e-03 bohr
RMS Displacement         TolRMSD  ....  2.0000e-03 bohr
Strict Convergence                ....  False
------------------------------------------------------------------------------
                        ORCA OPTIMIZATION COORDINATE SETUP
------------------------------------------------------------------------------

The optimization will be done in new redundant internal coordinates
Making redundant internal coordinates   ...  (new redundants) done
Evaluating the initial hessian          ...  (Almloef) done
Evaluating the coordinates              ...  done
Calculating the B-matrix                .... done
Calculating the G-matrix                .... done
Diagonalizing the G-matrix              .... done
Small eigenvalue found = 4.430e-03
Small eigenvalue found = 6.658e-03
Small eigenvalue found = 1.925e-02
Small eigenvalue found = 2.328e-02
Small eigenvalue found = 2.726e-02
The first mode is                       ....   93
The number of degrees of freedom        ....  114

    -----------------------------------------------------------------
                    Redundant Internal Coordinates


    -----------------------------------------------------------------
         Definition                    Initial Value    Approx d2E/dq
    -----------------------------------------------------------------
      1. B(H   1,C   0)                  1.0879         0.362837   
      2. B(H   2,C   0)                  1.0880         0.362731   
      3. B(H   3,C   0)                  1.0872         0.363799   
      4. B(C   4,C   0)                  1.5301         0.373371   
      5. B(C   5,C   4)                  1.5091         0.403385   
      6. B(C   6,C   5)                  1.3886         0.628095   
      7. B(C   7,C   6)                  1.3829         0.641395   
      8. B(C   8,C   7)                  1.3885         0.628306   
      9. B(C   9,C   8)                  1.3896         0.625812   
     10. B(C  10,C   9)                  1.3817         0.644204   
     11. B(C  10,C   5)                  1.3899         0.625035   
     12. B(H  11,C  10)                  1.0803         0.373171   
     13. B(H  12,C   9)                  1.0814         0.371723   
     14. B(C  13,C   8)                  1.4813         0.446803   
     15. B(C  14,C  13)                  1.3950         0.613427   
     16. B(C  15,C  14)                  1.3861         0.633773   
     17. B(C  16,C  15)                  1.3876         0.630288   
     18. B(C  17,C  16)                  1.3871         0.631538   
     19. B(C  18,C  17)                  1.3865         0.632848   
     20. B(C  18,C  13)                  1.3946         0.614220   
     21. B(C  19,C  18)                  1.4999         0.417276   
     22. B(H  20,C  19)                  1.0872         0.363875   
     23. B(H  21,C  19)                  1.0895         0.360704   
     24. B(H  22,C  19)                  1.0894         0.360886   
     25. B(H  23,C  17)                  1.0814         0.371723   
     26. B(C  24,C  16)                  1.4995         0.417880   
     27. B(H  25,C  24)                  1.0876         0.363328   
     28. B(H  26,C  24)                  1.0907         0.359150   
     29. B(H  27,C  24)                  1.0879         0.362855   
     30. B(H  28,C  15)                  1.0814         0.371599   
     31. B(C  29,C  14)                  1.4998         0.417450   
     32. B(H  30,C  29)                  1.0873         0.363756   
     33. B(H  31,C  29)                  1.0895         0.360784   
     34. B(H  32,C  29)                  1.0895         0.360752   
     35. B(H  33,C   7)                  1.0813         0.371836   
     36. B(H  34,C   6)                  1.0816         0.371447   
     37. B(C  35,C   4)                  1.5302         0.373328   
     38. B(H  36,C  35)                  1.0880         0.362809   
     39. B(H  37,C  35)                  1.0872         0.363760   
     40. B(H  38,C  35)                  1.0880         0.362707   
     41. B(H  39,C   4)                  1.0961         0.352171   
     42. A(H   1,C   0,H   3)          108.3599         0.291654   
     43. A(H   2,C   0,C   4)          110.3654         0.324678   
     44. A(H   1,C   0,H   2)          108.5733         0.291519   
     45. A(H   2,C   0,H   3)          108.3566         0.291641   
     46. A(H   1,C   0,C   4)          110.2780         0.324693   
     47. A(H   3,C   0,C   4)          110.8372         0.324835   
     48. A(C   5,C   4,C  35)          110.8210         0.368119   
     49. A(C  35,C   4,H  39)          108.0879         0.323101   
     50. A(C   0,C   4,C  35)          110.7589         0.363276   
     51. A(C   5,C   4,H  39)          108.0985         0.327240   
     52. A(C   0,C   4,C   5)          110.8735         0.368126   
     53. A(C   0,C   4,H  39)          108.0792         0.323107   
     54. A(C   6,C   5,C  10)          118.2252         0.435715   
     55. A(C   4,C   5,C  10)          121.2575         0.402651   
     56. A(C   4,C   5,C   6)          120.5173         0.402998   
     57. A(C   5,C   6,H  34)          119.4816         0.355550   
     58. A(C   7,C   6,H  34)          119.4478         0.356817   
     59. A(C   5,C   6,C   7)          121.0707         0.437748   
     60. A(C   6,C   7,H  33)          120.1051         0.356881   
     61. A(C   8,C   7,H  33)          119.4122         0.355633   
     62. A(C   6,C   7,C   8)          120.4827         0.437775   
     63. A(C   9,C   8,C  13)          120.6246         0.410083   
     64. A(C   7,C   8,C  13)          120.7048         0.410372   
     65. A(C   7,C   8,C   9)          118.6706         0.435839   
     66. A(C   8,C   9,C  10)          120.6331         0.437806   
     67. A(C  10,C   9,H  12)          120.0668         0.357127   
     68. A(C   8,C   9,H  12)          119.3001         0.355375   
     69. A(C   5,C  10,C   9)          120.9178         0.437708   
     70. A(C   9,C  10,H  11)          119.1176         0.357363   
     71. A(C   5,C  10,H  11)          119.9646         0.355535   
     72. A(C  14,C  13,C  18)          120.2387         0.432506   
     73. A(C   8,C  13,C  18)          119.8924         0.408727   
     74. A(C   8,C  13,C  14)          119.8688         0.408633   
     75. A(C  13,C  14,C  29)          119.9680         0.403755   
     76. A(C  13,C  14,C  15)          119.1948         0.434951   
     77. A(C  15,C  14,C  29)          120.8372         0.406088   
     78. A(C  16,C  15,H  28)          119.3199         0.355785   
     79. A(C  14,C  15,H  28)          119.3025         0.356118   
     80. A(C  14,C  15,C  16)          121.3776         0.437080   
     81. A(C  15,C  16,C  17)          118.6142         0.436802   
     82. A(C  17,C  16,C  24)          120.8180         0.405909   
     83. A(C  15,C  16,C  24)          120.5593         0.405766   
     84. A(C  16,C  17,C  18)          121.3638         0.437121   
     85. A(C  18,C  17,H  23)          119.2604         0.356050   
     86. A(C  16,C  17,H  23)          119.3757         0.355925   
     87. A(C  17,C  18,C  19)          120.8137         0.405954   
     88. A(C  13,C  18,C  19)          119.9753         0.403817   
     89. A(C  13,C  18,C  17)          119.2109         0.434938   
     90. A(H  21,C  19,H  22)          107.3929         0.291016   
     91. A(H  20,C  19,H  22)          108.8048         0.291416   
     92. A(C  18,C  19,H  22)          110.4627         0.330405   
     93. A(H  20,C  19,H  21)          108.7750         0.291393   
     94. A(C  18,C  19,H  21)          110.4665         0.330377   
     95. A(C  18,C  19,H  20)          110.8474         0.330856   
     96. A(H  26,C  24,H  27)          107.9256         0.291067   
     97. A(H  25,C  24,H  27)          108.9524         0.291597   
     98. A(C  16,C  24,H  27)          110.8590         0.330781   
     99. A(H  25,C  24,H  26)          108.0681         0.291127   
    100. A(C  16,C  24,H  26)          109.9987         0.330220   
    101. A(C  16,C  24,H  25)          110.9422         0.330853   
    102. A(H  31,C  29,H  32)          107.3967         0.291009   
    103. A(H  30,C  29,H  32)          108.7982         0.291384   
    104. A(C  14,C  29,H  32)          110.4792         0.330407   
    105. A(H  30,C  29,H  31)          108.7773         0.291388   
    106. A(C  14,C  29,H  31)          110.4545         0.330412   
    107. A(C  14,C  29,H  30)          110.8435         0.330861   
    108. A(H  37,C  35,H  38)          108.3708         0.291632   
    109. A(H  36,C  35,H  38)          108.5754         0.291512   
    110. A(C   4,C  35,H  38)          110.2771         0.324668   
    111. A(H  36,C  35,H  37)          108.3624         0.291645   
    112. A(C   4,C  35,H  37)          110.8227         0.324823   
    113. A(C   4,C  35,H  36)          110.3625         0.324683   
    114. D(H  39,C   4,C   0,H   3)   -178.0747         0.011132   
    115. D(C  35,C   4,C   0,H   1)     60.1503         0.011132   
    116. D(C  35,C   4,C   0,H   2)   -179.8924         0.011132   
    117. D(H  39,C   4,C   0,H   2)     61.8775         0.011132   
    118. D(C  35,C   4,C   0,H   3)    -59.8446         0.011132   
    119. D(C   5,C   4,C   0,H   3)     63.6164         0.011132   
    120. D(C   5,C   4,C   0,H   2)    -56.4314         0.011132   
    121. D(C   5,C   4,C   0,H   1)   -176.3887         0.011132   
    122. D(H  39,C   4,C   0,H   1)    -58.0799         0.011132   
    123. D(C  10,C   5,C   4,C  35)     61.9011         0.012067   
    124. D(C  10,C   5,C   4,C   0)    -61.5242         0.012067   
    125. D(C   6,C   5,C   4,H  39)      0.2136         0.012067   
    126. D(C   6,C   5,C   4,C  35)   -118.0639         0.012067   
    127. D(C  10,C   5,C   4,H  39)   -179.8214         0.012067   
    128. D(C   6,C   5,C   4,C   0)    118.5108         0.012067   
    129. D(C   7,C   6,C   5,C  10)     -0.0107         0.027342   
    130. D(H  34,C   6,C   5,C   4)     -0.0441         0.027342   
    131. D(C   7,C   6,C   5,C   4)    179.9554         0.027342   
    132. D(H  34,C   6,C   5,C  10)    179.9898         0.027342   
    133. D(H  33,C   7,C   6,C   5)    179.9959         0.028591   
    134. D(H  33,C   7,C   6,H  34)     -0.0046         0.028591   
    135. D(C   8,C   7,C   6,H  34)   -179.9949         0.028591   
    136. D(C   8,C   7,C   6,C   5)      0.0056         0.028591   
    137. D(C  13,C   8,C   7,H  33)      0.0320         0.027362   
    138. D(C  13,C   8,C   7,C   6)   -179.9777         0.027362   
    139. D(C   9,C   8,C   7,H  33)   -179.9834         0.027362   
    140. D(C   9,C   8,C   7,C   6)      0.0069         0.027362   
    141. D(H  12,C   9,C   8,C  13)     -0.0061         0.027132   
    142. D(H  12,C   9,C   8,C   7)   -179.9907         0.027132   
    143. D(C  10,C   9,C   8,C  13)    179.9703         0.027132   
    144. D(C  10,C   9,C   8,C   7)     -0.0143         0.027132   
    145. D(H  11,C  10,C   9,C   8)   -179.9791         0.028859   
    146. D(C   5,C  10,C   9,H  12)    179.9855         0.028859   
    147. D(C   5,C  10,C   9,C   8)      0.0093         0.028859   
    148. D(H  11,C  10,C   5,C   6)    179.9916         0.027060   
    149. D(H  11,C  10,C   5,C   4)      0.0258         0.027060   
    150. D(C   9,C  10,C   5,C   6)      0.0033         0.027060   
    151. D(H  11,C  10,C   9,H  12)     -0.0029         0.028859   
    152. D(C   9,C  10,C   5,C   4)   -179.9625         0.027060   
    153. D(C  18,C  13,C   8,C   9)     89.5362         0.013612   
    154. D(C  18,C  13,C   8,C   7)    -90.4794         0.013612   
    155. D(C  14,C  13,C   8,C   9)    -90.3576         0.013612   
    156. D(C  14,C  13,C   8,C   7)     89.6268         0.013612   
    157. D(C  29,C  14,C  13,C   8)     -0.0693         0.026005   
    158. D(C  15,C  14,C  13,C  18)     -0.0380         0.026005   
    159. D(C  29,C  14,C  13,C  18)   -179.9627         0.026005   
    160. D(C  15,C  14,C  13,C   8)    179.8555         0.026005   
    161. D(H  28,C  15,C  14,C  29)     -0.0133         0.027871   
    162. D(H  28,C  15,C  14,C  13)   -179.9374         0.027871   
    163. D(C  16,C  15,C  14,C  29)    179.9160         0.027871   
    164. D(C  16,C  15,C  14,C  13)     -0.0081         0.027871   
    165. D(C  24,C  16,C  15,H  28)     -1.0683         0.027546   
    166. D(C  24,C  16,C  15,C  14)    179.0024         0.027546   
    167. D(C  17,C  16,C  15,H  28)    179.9861         0.027546   
    168. D(C  17,C  16,C  15,C  14)      0.0568         0.027546   
    169. D(H  23,C  17,C  16,C  24)      1.0678         0.027662   
    170. D(H  23,C  17,C  16,C  15)   -179.9894         0.027662   
    171. D(C  18,C  17,C  16,C  24)   -179.0036         0.027662   
    172. D(C  18,C  17,C  16,C  15)     -0.0608         0.027662   
    173. D(C  19,C  18,C  13,C  14)    179.9527         0.026077   
    174. D(C  19,C  18,C  13,C   8)      0.0593         0.026077   
    175. D(C  17,C  18,C  13,C  14)      0.0341         0.026077   
    176. D(C  17,C  18,C  13,C   8)   -179.8593         0.026077   
    177. D(C  19,C  18,C  17,H  23)      0.0268         0.027785   
    178. D(C  19,C  18,C  17,C  16)   -179.9019         0.027785   
    179. D(C  13,C  18,C  17,H  23)    179.9447         0.027785   
    180. D(C  13,C  18,C  17,C  16)      0.0160         0.027785   
    181. D(H  22,C  19,C  18,C  17)   -121.2486         0.012880   
    182. D(H  22,C  19,C  18,C  13)     58.8341         0.012880   
    183. D(H  21,C  19,C  18,C  17)    120.0780         0.012880   
    184. D(H  21,C  19,C  18,C  13)    -59.8393         0.012880   
    185. D(H  20,C  19,C  18,C  17)     -0.5679         0.012880   
    186. D(H  20,C  19,C  18,C  13)    179.5149         0.012880   
    187. D(H  27,C  24,C  16,C  17)   -146.8429         0.012916   
    188. D(H  27,C  24,C  16,C  15)     34.2348         0.012916   
    189. D(H  26,C  24,C  16,C  17)     93.8702         0.012916   
    190. D(H  26,C  24,C  16,C  15)    -85.0520         0.012916   
    191. D(H  25,C  24,C  16,C  17)    -25.6466         0.012916   
    192. D(H  25,C  24,C  16,C  15)    155.4312         0.012916   
    193. D(H  32,C  29,C  14,C  15)   -121.0727         0.012891   
    194. D(H  32,C  29,C  14,C  13)     58.8507         0.012891   
    195. D(H  31,C  29,C  14,C  15)    120.2463         0.012891   
    196. D(H  31,C  29,C  14,C  13)    -59.8302         0.012891   
    197. D(H  30,C  29,C  14,C  15)     -0.3919         0.012891   
    198. D(H  30,C  29,C  14,C  13)    179.5316         0.012891   
    199. D(H  38,C  35,C   4,H  39)     58.2224         0.011130   
    200. D(H  38,C  35,C   4,C   5)    176.5063         0.011130   
    201. D(H  38,C  35,C   4,C   0)    -60.0025         0.011130   
    202. D(H  37,C  35,C   4,H  39)    178.2209         0.011130   
    203. D(H  37,C  35,C   4,C   5)    -63.4952         0.011130   
    204. D(H  37,C  35,C   4,C   0)     59.9961         0.011130   
    205. D(H  36,C  35,C   4,H  39)    -61.7353         0.011130   
    206. D(H  36,C  35,C   4,C   5)     56.5486         0.011130   
    207. D(H  36,C  35,C   4,C   0)   -179.9602         0.011130   
    -----------------------------------------------------------------

Number of atoms                         .... 40
Number of degrees of freedom            .... 207

         *************************************************************
         *                GEOMETRY OPTIMIZATION CYCLE   1            *
         *************************************************************
---------------------------------
CARTESIAN COORDINATES (ANGSTROEM)
---------------------------------
  C     -5.029100   -1.259500    0.361300
  H     -6.110800   -1.279000    0.246600
  H     -4.614600   -2.148500   -0.109500
  H     -4.796600   -1.294200    1.422800
  C     -4.450300    0.002600   -0.281700
  C     -2.943000    0.000800   -0.208000
  C     -2.180300    0.011300   -1.368300
  C     -0.798500    0.010700   -1.314100
  C     -0.141600   -0.000600   -0.090900
  C     -0.900300   -0.011400    1.073200
  C     -2.280700   -0.010600    1.013900
  H     -2.846400   -0.018800    1.934200
  H     -0.399200   -0.020100    2.031400
  C      1.338300   -0.000800   -0.027100
  C      2.032400    1.208800    0.006300
  C      3.417000    1.192300    0.069000
  C      4.124700   -0.000900    0.099300
  C      3.417600   -1.193700    0.064300
  C      2.032600   -1.210000    0.001600
  C      1.280300   -2.507100   -0.033500
  H      1.964400   -3.351800   -0.013300
  H      0.607300   -2.580400    0.820200
  H      0.671300   -2.569900   -0.934600
  H      3.956700   -2.130800    0.087500
  C      5.623500    0.002600    0.144700
  H      6.001200   -0.917100    0.585500
  H      6.027100    0.084300   -0.865300
  H      5.991600    0.848200    0.721800
  H      3.956800    2.129000    0.096000
  C      1.279600    2.505600   -0.024000
  H      1.962700    3.350500    0.016400
  H      0.684300    2.579100   -0.933500
  H      0.593700    2.568000    0.820200
  H     -0.219900    0.018900   -2.227500
  H     -2.674700    0.020100   -2.330200
  C     -5.025500    1.258900    0.375800
  H     -4.610400    2.152000   -0.086500
  H     -4.790500    1.281800    1.437100
  H     -6.107500    1.281500    0.263600
  H     -4.739500    0.009000   -1.338900

----------------------------
CARTESIAN COORDINATES (A.U.)
----------------------------
  NO LB      ZA    FRAG     MASS         X           Y           Z
   0 C     6.0000    0    12.011   -9.503622   -2.380110    0.682758
   1 H     1.0000    0     1.008  -11.547738   -2.416960    0.466006
   2 H     1.0000    0     1.008   -8.720330   -4.060077   -0.206925
   3 H     1.0000    0     1.008   -9.064260   -2.445684    2.688702
   4 C     6.0000    0    12.011   -8.409848    0.004913   -0.532336
   5 C     6.0000    0    12.011   -5.561464    0.001512   -0.393063
   6 C     6.0000    0    12.011   -4.120170    0.021354   -2.585712
   7 C     6.0000    0    12.011   -1.508946    0.020220   -2.483289
   8 C     6.0000    0    12.011   -0.267585   -0.001134   -0.171776
   9 C     6.0000    0    12.011   -1.701320   -0.021543    2.028054
  10 C     6.0000    0    12.011   -4.309898   -0.020031    1.915993
  11 H     1.0000    0     1.008   -5.378916   -0.035527    3.655108
  12 H     1.0000    0     1.008   -0.754379   -0.037983    3.838790
  13 C     6.0000    0    12.011    2.529020   -0.001512   -0.051212
  14 C     6.0000    0    12.011    3.840679    2.284301    0.011905
  15 C     6.0000    0    12.011    6.457194    2.253120    0.130391
  16 C     6.0000    0    12.011    7.794553   -0.001701    0.187650
  17 C     6.0000    0    12.011    6.458328   -2.255766    0.121509
  18 C     6.0000    0    12.011    3.841057   -2.286569    0.003024
  19 C     6.0000    0    12.011    2.419416   -4.737732   -0.063306
  20 H     1.0000    0     1.008    3.712178   -6.333984   -0.025133
  21 H     1.0000    0     1.008    1.147631   -4.876249    1.549953
  22 H     1.0000    0     1.008    1.268573   -4.856407   -1.766138
  23 H     1.0000    0     1.008    7.477079   -4.026628    0.165351
  24 C     6.0000    0    12.011   10.626875    0.004913    0.273443
  25 H     1.0000    0     1.008   11.340624   -1.733068    1.106435
  26 H     1.0000    0     1.008   11.389568    0.159304   -1.635180
  27 H     1.0000    0     1.008   11.322483    1.602866    1.364004
  28 H     1.0000    0     1.008    7.477268    4.023227    0.181414
  29 C     6.0000    0    12.011    2.418094    4.734898   -0.045353
  30 H     1.0000    0     1.008    3.708965    6.331527    0.030992
  31 H     1.0000    0     1.008    1.293140    4.873793   -1.764059
  32 H     1.0000    0     1.008    1.121930    4.852817    1.549953
  33 H     1.0000    0     1.008   -0.415551    0.035716   -4.209365
  34 H     1.0000    0     1.008   -5.054450    0.037983   -4.403440
  35 C     6.0000    0    12.011   -9.496819    2.378976    0.710159
  36 H     1.0000    0     1.008   -8.712393    4.066691   -0.163461
  37 H     1.0000    0     1.008   -9.052733    2.422251    2.715725
  38 H     1.0000    0     1.008  -11.541502    2.421684    0.498132
  39 H     1.0000    0     1.008   -8.956357    0.017008   -2.530154

--------------------------------
INTERNAL COORDINATES (ANGSTROEM)
--------------------------------
 C      0   0   0     0.000000000000     0.00000000     0.00000000
 H      1   0   0     1.087938982664     0.00000000     0.00000000
 H      1   2   0     1.088018331647   108.57329342     0.00000000
 H      1   2   3     1.087217820862   108.35990814   242.51154815
 C      1   2   3     1.530148636571   110.27798814   121.03314808
 C      5   1   2     1.509101792458   110.87351644   183.61126099
 C      6   5   1     1.388566753887   120.51726001   118.51076467
 C      7   6   5     1.382862697450   121.07067942   179.95536375
 C      8   7   6     1.388475257252   120.48265515     0.00000000
 C      9   8   7     1.389557893720   118.67061302     0.00000000
 C     10   9   8     1.381673365886   120.63306083     0.00000000
 H     11  10   9     1.080294321007   119.11761745   180.02089146
 H     10   9   8     1.081352921113   119.30011896   180.00925678
 C      9   8   7     1.481274616673   120.70480789   180.02229037
 C     14   9   8     1.394999114695   119.86879077    89.62677378
 C     15  14   9     1.386117130693   119.19475595   179.85546157
 C     16  15  14     1.387617966156   121.37761671     0.00000000
 C     17  16  15     1.387078674769   118.61419630     0.05678977
 C     18  17  16     1.386514327369   121.36379800   359.93920042
 C     19  18  17     1.499885232276   120.81373960   180.09811312
 H     20  19  18     1.087160954045   110.84735195   359.43214991
 H     20  19  18     1.089543748548   110.46649750   120.07800783
 H     20  19  18     1.089406283257   110.46271075   238.75142117
 H     18  17  16     1.081352606692   119.37572767   180.01059108
 C     17  16  15     1.499491530486   120.55927748   179.00244156
 H     25  17  16     1.087570696553   110.94215361   155.43120191
 H     25  17  16     1.090718960136   109.99871498   274.94796179
 H     25  17  16     1.087925263977   110.85899386    34.23484373
 H     16  15  14     1.081443447435   119.30247939   180.06259585
 C     15  14   9     1.499772039345   119.96801755   359.93070985
 H     30  15  14     1.087250559899   110.84350069   179.53163833
 H     30  15  14     1.089483634572   110.45447157   300.16984365
 H     30  15  14     1.089507324436   110.47916122    58.85074598
 H      8   7   6     1.081269975538   120.10511115   179.99587229
 H      7   6   5     1.081554626452   119.48155069   359.95587124
 C      5   1   2     1.530180048230   110.75889482    60.15025047
 H     36   5   1     1.087959976286   110.36254522   180.03984436
 H     36   5   1     1.087247487925   110.82269896    59.99607894
 H     36   5   1     1.088036580267   110.27713947   299.99753535
 H      5   1   2     1.096060874222   108.07920695   301.92014281

---------------------------
INTERNAL COORDINATES (A.U.)
---------------------------
 C      0   0   0     0.000000000000     0.00000000     0.00000000
 H      1   0   0     2.055906727652     0.00000000     0.00000000
 H      1   2   0     2.056056675499   108.57329342     0.00000000
 H      1   2   3     2.054543929348   108.35990814   242.51154815
 C      1   2   3     2.891561867312   110.27798814   121.03314808
 C      5   1   2     2.851789095955   110.87351644   183.61126099
 C      6   5   1     2.624010883514   120.51726001   118.51076467
 C      7   6   5     2.613231778997   121.07067942   179.95536375
 C      8   7   6     2.623837979931   120.48265515     0.00000000
 C      9   8   7     2.625883866360   118.67061302     0.00000000
 C     10   9   8     2.610984268059   120.63306083     0.00000000
 H     11  10   9     2.041460410734   119.11761745   180.02089146
 H     10   9   8     2.043460875020   119.30011896   180.00925678
 C      9   8   7     2.799203354641   120.70480789   180.02229037
 C     14   9   8     2.636166283836   119.86879077    89.62677378
 C     15  14   9     2.619381766546   119.19475595   179.85546157
 C     16  15  14     2.622217934544   121.37761671     0.00000000
 C     17  16  15     2.621198821517   118.61419630     0.05678977
 C     18  17  16     2.620132359486   121.36379800   359.93920042
 C     19  18  17     2.834372321315   120.81373960   180.09811312
 H     20  19  18     2.054436466638   110.84735195   359.43214991
 H     20  19  18     2.058939295682   110.46649750   120.07800783
 H     20  19  18     2.058679523929   110.46271075   238.75142117
 H     18  17  16     2.043460280850   119.37572767   180.01059108
 C     17  16  15     2.833628332753   120.55927748   179.00244156
 H     25  17  16     2.055210767762   110.94215361   155.43120191
 H     25  17  16     2.061160123732   109.99871498   274.94796179
 H     25  17  16     2.055880803091   110.85899386    34.23484373
 H     16  15  14     2.043631944976   119.30247939   180.06259585
 C     15  14   9     2.834158417674   119.96801755   359.93070985
 H     30  15  14     2.054605797161   110.84350069   179.53163833
 H     30  15  14     2.058825696730   110.45447157   300.16984365
 H     30  15  14     2.058870464086   110.47916122    58.85074598
 H      8   7   6     2.043304130599   120.10511115   179.99587229
 H      7   6   5     2.043842042870   119.48155069   359.95587124
 C      5   1   2     2.891621226744   110.75889482    60.15025047
 H     36   5   1     2.055946399848   110.36254522   180.03984436
 H     36   5   1     2.054599991973   110.82269896    59.99607894
 H     36   5   1     2.056091160394   110.27713947   299.99753535
 H      5   1   2     2.071254878386   108.07920695   301.92014281

---------------------
BASIS SET INFORMATION
---------------------
There are 2 groups of distinct atoms

 Group   1 Type C   : 7s4p1d contracted to 3s2p1d pattern {511/31/1}
 Group   2 Type H   : 4s1p contracted to 2s1p pattern {31/1}

Atom   0C    basis set group =>   1
Atom   1H    basis set group =>   2
Atom   2H    basis set group =>   2
Atom   3H    basis set group =>   2
Atom   4C    basis set group =>   1
Atom   5C    basis set group =>   1
Atom   6C    basis set group =>   1
Atom   7C    basis set group =>   1
Atom   8C    basis set group =>   1
Atom   9C    basis set group =>   1
Atom  10C    basis set group =>   1
Atom  11H    basis set group =>   2
Atom  12H    basis set group =>   2
Atom  13C    basis set group =>   1
Atom  14C    basis set group =>   1
Atom  15C    basis set group =>   1
Atom  16C    basis set group =>   1
Atom  17C    basis set group =>   1
Atom  18C    basis set group =>   1
Atom  19C    basis set group =>   1
Atom  20H    basis set group =>   2
Atom  21H    basis set group =>   2
Atom  22H    basis set group =>   2
Atom  23H    basis set group =>   2
Atom  24C    basis set group =>   1
Atom  25H    basis set group =>   2
Atom  26H    basis set group =>   2
Atom  27H    basis set group =>   2
Atom  28H    basis set group =>   2
Atom  29C    basis set group =>   1
Atom  30H    basis set group =>   2
Atom  31H    basis set group =>   2
Atom  32H    basis set group =>   2
Atom  33H    basis set group =>   2
Atom  34H    basis set group =>   2
Atom  35C    basis set group =>   1
Atom  36H    basis set group =>   2
Atom  37H    basis set group =>   2
Atom  38H    basis set group =>   2
Atom  39H    basis set group =>   2
------------------------------------------------------------------------------
                           ORCA GTO INTEGRAL CALCULATION
------------------------------------------------------------------------------

                         BASIS SET STATISTICS AND STARTUP INFO

 # of primitive gaussian shells          ...  326
 # of primitive gaussian functions       ...  586
 # of contracted shells                  ...  174
 # of contracted basis functions         ...  362
 Highest angular momentum                ...    2
 Maximum contraction depth               ...    5
 Integral package used                   ... LIBINT
 Integral threshhold            Thresh   ...  2.500e-11
 Primitive cut-off              TCut     ...  2.500e-12


------------------------------ INTEGRAL EVALUATION ----------------------------


 * One electron integrals 
 Pre-screening matrix                    ... done
 Shell pair data                         ... done (   0.004 sec)

-------------------------------------------------------------------------------
                                 ORCA SCF
-------------------------------------------------------------------------------

------------
SCF SETTINGS
------------
Hamiltonian:
 Density Functional     Method          .... DFT(GTOs)
 Exchange Functional    Exchange        .... WB97X-D3
 Correlation Functional Correlation     .... WB97X-D3
 Gradients option       PostSCFGGA      .... off
 Hybrid DFT is turned on
   Fraction HF Exchange ScalHFX         ....  0.195728
   Scaling of DF-GGA-X  ScalDFX         ....  0.000000
   Scaling of DF-GGA-C  ScalDFC         ....  1.000000
   Scaling of DF-LDA-C  ScalLDAC        ....  1.000000
   Perturbative correction              ....  0.000000
   Density functional embedding theory  .... OFF
 Long-range corrected/Screened/Range-Separated Hybrid DFT is turned on
   Amount of maximum screened exact exchange              ....  0.804272
   Range separation parameter mu (erf(mu*r12)/r12)        ....  0.250000


General Settings:
 Integral files         IntName         .... 059627639
 Hartree-Fock type      HFTyp           .... RHF
 Total Charge           Charge          ....    0
 Multiplicity           Mult            ....    1
 Number of Electrons    NEL             ....  130
 Basis Dimension        Dim             ....  362
 Nuclear Repulsion      ENuc            ....   1252.6685106593 Eh

Convergence Acceleration:
 DIIS                   CNVDIIS         .... on
   Start iteration      DIISMaxIt       ....    12
   Startup error        DIISStart       ....  0.200000
   # of expansion vecs  DIISMaxEq       ....     5
   Bias factor          DIISBfac        ....   1.050
   Max. coefficient     DIISMaxC        ....  10.000
 Newton-Raphson         CNVNR           .... off
 SOSCF                  CNVSOSCF        .... on
   Start iteration      SOSCFMaxIt      ....   150
   Startup grad/error   SOSCFStart      ....  0.003300
 Level Shifting         CNVShift        .... on
   Level shift para.    LevelShift      ....    0.2500
   Turn off err/grad.   ShiftErr        ....    0.0010
 Zerner damping         CNVZerner       .... off
 Static damping         CNVDamp         .... on
   Fraction old density DampFac         ....    0.7000
   Max. Damping (<1)    DampMax         ....    0.9800
   Min. Damping (>=0)   DampMin         ....    0.0000
   Turn off err/grad.   DampErr         ....    0.1000
 Fernandez-Rico         CNVRico         .... off

SCF Procedure:
 Maximum # iterations   MaxIter         ....   125
 SCF integral mode      SCFMode         .... Direct
   Integral package                     .... LIBINT
 Reset frequency        DirectResetFreq ....    20
 Integral Threshold     Thresh          ....  2.500e-11 Eh
 Primitive CutOff       TCut            ....  2.500e-12 Eh

Convergence Tolerance:
 Convergence Check Mode ConvCheckMode   .... Total+1el-Energy
 Convergence forced     ConvForced      .... 0
 Energy Change          TolE            ....  1.000e-08 Eh
 1-El. energy change                    ....  1.000e-05 Eh
 Orbital Gradient       TolG            ....  1.000e-05
 Orbital Rotation angle TolX            ....  1.000e-05
 DIIS Error             TolErr          ....  5.000e-07


Diagonalization of the overlap matrix:
Smallest eigenvalue                        ... 1.917e-04
Time for diagonalization                   ...    0.018 sec
Threshold for overlap eigenvalues          ... 1.000e-08
Number of eigenvalues below threshold      ... 0
Time for construction of square roots      ...    0.009 sec
Total time needed                          ...    0.027 sec

-------------------
DFT GRID GENERATION
-------------------

General Integration Accuracy     IntAcc      ...  4.340
Radial Grid Type                 RadialGrid  ... Gauss-Chebyshev
Angular Grid (max. acc.)         AngularGrid ... Lebedev-110
Angular grid pruning method      GridPruning ... 3 (G Style)
Weight generation scheme         WeightScheme... Becke
Basis function cutoff            BFCut       ...    1.0000e-11
Integration weight cutoff        WCut        ...    1.0000e-14
Grids for H and He will be reduced by one unit

# of grid points (after initial pruning)     ...  47276 (   0.0 sec)
# of grid points (after weights+screening)   ...  41847 (   0.4 sec)
nearest neighbour list constructed           ...    0.0 sec
Grid point re-assignment to atoms done       ...    0.0 sec
Grid point division into batches done        ...    0.0 sec
Reduced shell lists constructed in    0.4 sec

Total number of grid points                  ...    41847
Total number of batches                      ...      676
Average number of points per batch           ...       61
Average number of grid points per atom       ...     1046
Average number of shells per batch           ...    89.47 (51.42%)
Average number of basis functions per batch  ...   175.63 (48.52%)
Average number of large shells per batch     ...    60.93 (68.11%)
Average number of large basis fcns per batch ...   120.11 (68.39%)
Maximum spatial batch extension              ...  23.20, 21.46, 21.08 au
Average spatial batch extension              ...   3.21,  3.41,  3.45 au

Time for grid setup =    0.856 sec

------------------------------
INITIAL GUESS: MODEL POTENTIAL
------------------------------
Loading Hartree-Fock densities                     ... done
Calculating cut-offs                               ... done
Setting up the integral package                    ... done
Initializing the effective Hamiltonian             ... done
Starting the Coulomb interaction                   ... done (   0.7 sec)
Reading the grid                                   ... done
Mapping shells                                     ... done
Starting the XC term evaluation                    ... done (   0.7 sec)
  promolecular density results
     # of electrons  =    130.000852980
     EX              =    -98.638804945
     EC              =     -4.302584101
     EX+EC           =   -102.941389046
Transforming the Hamiltonian                       ... done (   0.0 sec)
Diagonalizing the Hamiltonian                      ... done (   0.0 sec)
Back transforming the eigenvectors                 ... done (   0.0 sec)
Now organizing SCF variables                       ... done
                      ------------------
                      INITIAL GUESS DONE (   2.3 sec)
                      ------------------
--------------
SCF ITERATIONS
--------------
ITER       Energy         Delta-E        Max-DP      RMS-DP      [F,P]     Damp
               ***  Starting incremental Fock matrix formation  ***
  0   -698.0856432631   0.000000000000 0.08348310  0.00161398  0.1545752 0.7000
  1   -698.2450758823  -0.159432619190 0.05854750  0.00120245  0.0960904 0.7000
                               ***Turning on DIIS***
  2   -698.3334606377  -0.088384755477 0.12396082  0.00254211  0.0523324 0.0000
  3   -698.4800365832  -0.146575945411 0.03376548  0.00060950  0.0348110 0.0000
  4   -698.4980532382  -0.018016655056 0.00449688  0.00013399  0.0047229 0.0000
                      *** Initiating the SOSCF procedure ***
                           *** Shutting down DIIS ***
                      *** Re-Reading the Fockian *** 
                      *** Removing any level shift *** 
ITER      Energy       Delta-E        Grad      Rot      Max-DP    RMS-DP
  5   -698.49850687  -0.0004536355  0.000444  0.000444  0.002382  0.000050
               *** Restarting incremental Fock matrix formation ***
  6   -698.49853679  -0.0000299157  0.000199  0.000509  0.001178  0.000026
  7   -698.49853986  -0.0000030720  0.000273  0.000437  0.000643  0.000011
  8   -698.49854127  -0.0000014044  0.000053  0.000085  0.000132  0.000004
  9   -698.49854135  -0.0000000813  0.000021  0.000027  0.000074  0.000001
 10   -698.49854139  -0.0000000462  0.000007  0.000016  0.000017  0.000000
 11   -698.49854140  -0.0000000068  0.000005  0.000008  0.000006  0.000000
                  ***Gradient check signals convergence***
              ***Rediagonalizing the Fockian in SOSCF/NRSCF***

               *****************************************************
               *                     SUCCESS                       *
               *           SCF CONVERGED AFTER  12 CYCLES          *
               *****************************************************

Setting up the final grid:

General Integration Accuracy     IntAcc      ...  4.670
Radial Grid Type                 RadialGrid  ... Gauss-Chebyshev
Angular Grid (max. acc.)         AngularGrid ... Lebedev-302
Angular grid pruning method      GridPruning ... 3 (G Style)
Weight generation scheme         WeightScheme... Becke
Basis function cutoff            BFCut       ...    1.0000e-11
Integration weight cutoff        WCut        ...    1.0000e-14
Grids for H and He will be reduced by one unit

# of grid points (after initial pruning)     ... 186484 (   0.1 sec)
# of grid points (after weights+screening)   ... 161836 (   1.5 sec)
nearest neighbour list constructed           ...    0.0 sec
Grid point re-assignment to atoms done       ...    0.0 sec
Grid point division into batches done        ...    0.5 sec
Reduced shell lists constructed in    1.9 sec

Total number of grid points                  ...   161836
Total number of batches                      ...     2548
Average number of points per batch           ...       63
Average number of grid points per atom       ...     4046
Average number of shells per batch           ...    81.50 (46.84%)
Average number of basis functions per batch  ...   158.58 (43.81%)
Average number of large shells per batch     ...    54.38 (66.72%)
Average number of large basis fcns per batch ...   106.14 (66.93%)
Maximum spatial batch extension              ...  20.48, 20.42, 20.21 au
Average spatial batch extension              ...   2.17,  2.25,  2.24 au

Final grid set up in    3.5 sec
Final integration                            ... done (   3.2 sec)
Change in XC energy                          ...     0.005083774
Integrated number of electrons               ...   130.000181698
Previous integrated no of electrons          ...   130.003656449

----------------
TOTAL SCF ENERGY
----------------

Total Energy       :         -698.49345763 Eh          -19006.97328 eV

Components:
Nuclear Repulsion  :         1252.66851066 Eh           34086.84312 eV
Electronic Energy  :        -1951.16196829 Eh          -53093.81639 eV
One Electron Energy:        -3428.74821836 Eh          -93300.98235 eV
Two Electron Energy:         1477.58625007 Eh           40207.16596 eV

Virial components:
Potential Energy   :        -1389.25910982 Eh          -37803.66228 eV
Kinetic Energy     :          690.76565219 Eh           18796.68900 eV
Virial Ratio       :            2.01118730


DFT components:
N(Alpha)           :       65.000090849094 electrons
N(Beta)            :       65.000090849094 electrons
N(Total)           :      130.000181698189 electrons
E(XC)              :      -72.102963173077 Eh       
DFET-embed. en.    :        0.000000000000 Eh       

---------------
SCF CONVERGENCE
---------------

  Last Energy change         ...   -9.8407e-10  Tolerance :   1.0000e-08
  Last MAX-Density change    ...    2.0090e-06  Tolerance :   1.0000e-07
  Last RMS-Density change    ...    4.7263e-08  Tolerance :   5.0000e-09
  Last Orbital Gradient      ...    1.0294e-06  Tolerance :   1.0000e-05
  Last Orbital Rotation      ...    2.9727e-06  Tolerance :   1.0000e-05

             **** THE GBW FILE WAS UPDATED (059627639.gbw) ****
             **** DENSITY FILE WAS UPDATED (059627639.scfp) ****
             **** ENERGY FILE WAS UPDATED (059627639.en.tmp) ****
             **** THE GBW FILE WAS UPDATED (059627639.gbw) ****
             **** DENSITY FILE WAS UPDATED (059627639.scfp) ****
----------------
ORBITAL ENERGIES
----------------

  NO   OCC          E(Eh)            E(eV) 
   0   2.0000     -10.292331      -280.0686 
   1   2.0000     -10.289929      -280.0032 
   2   2.0000     -10.289547      -279.9928 
   3   2.0000     -10.287416      -279.9348 
   4   2.0000     -10.287316      -279.9321 
   5   2.0000     -10.286121      -279.8996 
   6   2.0000     -10.286086      -279.8986 
   7   2.0000     -10.285464      -279.8817 
   8   2.0000     -10.285218      -279.8750 
   9   2.0000     -10.284449      -279.8541 
  10   2.0000     -10.278858      -279.7020 
  11   2.0000     -10.278332      -279.6876 
  12   2.0000     -10.275621      -279.6139 
  13   2.0000     -10.275615      -279.6137 
  14   2.0000     -10.274733      -279.5897 
  15   2.0000     -10.274675      -279.5881 
  16   2.0000     -10.272081      -279.5175 
  17   2.0000     -10.271981      -279.5148 
  18   2.0000      -0.987415       -26.8689 
  19   2.0000      -0.967997       -26.3405 
  20   2.0000      -0.922108       -25.0918 
  21   2.0000      -0.891606       -24.2618 
  22   2.0000      -0.888893       -24.1880 
  23   2.0000      -0.855235       -23.2721 
  24   2.0000      -0.842439       -22.9239 
  25   2.0000      -0.805133       -21.9088 
  26   2.0000      -0.792799       -21.5732 
  27   2.0000      -0.781168       -21.2567 
  28   2.0000      -0.780541       -21.2396 
  29   2.0000      -0.723220       -19.6798 
  30   2.0000      -0.710678       -19.3385 
  31   2.0000      -0.672864       -18.3096 
  32   2.0000      -0.670564       -18.2470 
  33   2.0000      -0.661708       -18.0060 
  34   2.0000      -0.616925       -16.7874 
  35   2.0000      -0.586839       -15.9687 
  36   2.0000      -0.585049       -15.9200 
  37   2.0000      -0.565587       -15.3904 
  38   2.0000      -0.543838       -14.7986 
  39   2.0000      -0.533938       -14.5292 
  40   2.0000      -0.528199       -14.3730 
  41   2.0000      -0.523472       -14.2444 
  42   2.0000      -0.517193       -14.0735 
  43   2.0000      -0.514754       -14.0072 
  44   2.0000      -0.513652       -13.9772 
  45   2.0000      -0.506783       -13.7903 
  46   2.0000      -0.504981       -13.7412 
  47   2.0000      -0.496980       -13.5235 
  48   2.0000      -0.491977       -13.3874 
  49   2.0000      -0.488737       -13.2992 
  50   2.0000      -0.484828       -13.1928 
  51   2.0000      -0.473861       -12.8944 
  52   2.0000      -0.460979       -12.5439 
  53   2.0000      -0.454602       -12.3703 
  54   2.0000      -0.446343       -12.1456 
  55   2.0000      -0.433812       -11.8046 
  56   2.0000      -0.427536       -11.6339 
  57   2.0000      -0.427293       -11.6272 
  58   2.0000      -0.419376       -11.4118 
  59   2.0000      -0.416834       -11.3426 
  60   2.0000      -0.406193       -11.0531 
  61   2.0000      -0.340142        -9.2557 
  62   2.0000      -0.322430        -8.7738 
  63   2.0000      -0.317898        -8.6504 
  64   2.0000      -0.311887        -8.4869 
  65   0.0000       0.068646         1.8680 
  66   0.0000       0.074502         2.0273 
  67   0.0000       0.078543         2.1373 
  68   0.0000       0.085394         2.3237 
  69   0.0000       0.141647         3.8544 
  70   0.0000       0.157662         4.2902 
  71   0.0000       0.161946         4.4068 
  72   0.0000       0.165662         4.5079 
  73   0.0000       0.177606         4.8329 
  74   0.0000       0.178919         4.8686 
  75   0.0000       0.194346         5.2884 
  76   0.0000       0.197568         5.3761 
  77   0.0000       0.198998         5.4150 
  78   0.0000       0.202568         5.5121 
  79   0.0000       0.208231         5.6663 
  80   0.0000       0.219005         5.9594 
  81   0.0000       0.226514         6.1638 
  82   0.0000       0.228588         6.2202 
  83   0.0000       0.242777         6.6063 
  84   0.0000       0.245661         6.6848 
  85   0.0000       0.249588         6.7916 
  86   0.0000       0.254254         6.9186 
  87   0.0000       0.256008         6.9663 
  88   0.0000       0.262270         7.1367 
  89   0.0000       0.268487         7.3059 
  90   0.0000       0.281843         7.6693 
  91   0.0000       0.284775         7.7491 
  92   0.0000       0.289316         7.8727 
  93   0.0000       0.294744         8.0204 
  94   0.0000       0.306667         8.3448 
  95   0.0000       0.325451         8.8560 
  96   0.0000       0.337011         9.1705 
  97   0.0000       0.346023         9.4158 
  98   0.0000       0.354303         9.6411 
  99   0.0000       0.361019         9.8238 
 100   0.0000       0.372667        10.1408 
 101   0.0000       0.393507        10.7079 
 102   0.0000       0.406742        11.0680 
 103   0.0000       0.416794        11.3416 
 104   0.0000       0.419803        11.4234 
 105   0.0000       0.428679        11.6649 
 106   0.0000       0.440420        11.9844 
 107   0.0000       0.457350        12.4451 
 108   0.0000       0.459855        12.5133 
 109   0.0000       0.464433        12.6379 
 110   0.0000       0.485669        13.2157 
 111   0.0000       0.488084        13.2815 
 112   0.0000       0.509250        13.8574 
 113   0.0000       0.513548        13.9743 
 114   0.0000       0.514309        13.9951 
 115   0.0000       0.520003        14.1500 
 116   0.0000       0.525728        14.3058 
 117   0.0000       0.529589        14.4108 
 118   0.0000       0.542106        14.7515 
 119   0.0000       0.547111        14.8877 
 120   0.0000       0.549874        14.9628 
 121   0.0000       0.550998        14.9934 
 122   0.0000       0.560451        15.2506 
 123   0.0000       0.564989        15.3741 
 124   0.0000       0.574717        15.6388 
 125   0.0000       0.578149        15.7322 
 126   0.0000       0.597070        16.2471 
 127   0.0000       0.598748        16.2928 
 128   0.0000       0.609893        16.5960 
 129   0.0000       0.636215        17.3123 
 130   0.0000       0.638201        17.3663 
 131   0.0000       0.654423        17.8078 
 132   0.0000       0.658421        17.9166 
 133   0.0000       0.679530        18.4910 
 134   0.0000       0.682544        18.5730 
 135   0.0000       0.688699        18.7405 
 136   0.0000       0.697076        18.9684 
 137   0.0000       0.699312        19.0293 
 138   0.0000       0.718756        19.5583 
 139   0.0000       0.728302        19.8181 
 140   0.0000       0.736016        20.0280 
 141   0.0000       0.739403        20.1202 
 142   0.0000       0.743977        20.2446 
 143   0.0000       0.748525        20.3684 
 144   0.0000       0.750723        20.4282 
 145   0.0000       0.753252        20.4970 
 146   0.0000       0.758586        20.6422 
 147   0.0000       0.759788        20.6749 
 148   0.0000       0.762072        20.7370 
 149   0.0000       0.765888        20.8409 
 150   0.0000       0.768181        20.9033 
 151   0.0000       0.773849        21.0575 
 152   0.0000       0.777184        21.1483 
 153   0.0000       0.781830        21.2747 
 154   0.0000       0.784402        21.3447 
 155   0.0000       0.787216        21.4212 
 156   0.0000       0.791258        21.5312 
 157   0.0000       0.795211        21.6388 
 158   0.0000       0.798835        21.7374 
 159   0.0000       0.799255        21.7488 
 160   0.0000       0.803277        21.8583 
 161   0.0000       0.804877        21.9018 
 162   0.0000       0.812811        22.1177 
 163   0.0000       0.814984        22.1768 
 164   0.0000       0.822661        22.3857 
 165   0.0000       0.827564        22.5191 
 166   0.0000       0.832834        22.6626 
 167   0.0000       0.836614        22.7654 
 168   0.0000       0.839108        22.8333 
 169   0.0000       0.845273        23.0011 
 170   0.0000       0.848542        23.0900 
 171   0.0000       0.859178        23.3794 
 172   0.0000       0.865871        23.5616 
 173   0.0000       0.867792        23.6138 
 174   0.0000       0.874032        23.7836 
 175   0.0000       0.884088        24.0573 
 176   0.0000       0.892930        24.2979 
 177   0.0000       0.911103        24.7924 
 178   0.0000       0.916307        24.9340 
 179   0.0000       0.924070        25.1452 
 180   0.0000       0.932761        25.3817 
 181   0.0000       0.941339        25.6151 
 182   0.0000       0.968101        26.3434 
 183   0.0000       0.973175        26.4814 
 184   0.0000       0.983748        26.7691 
 185   0.0000       0.990365        26.9492 
 186   0.0000       1.027730        27.9660 
 187   0.0000       1.035264        28.1710 
 188   0.0000       1.091655        29.7054 
 189   0.0000       1.108650        30.1679 
 190   0.0000       1.119436        30.4614 
 191   0.0000       1.131654        30.7939 
 192   0.0000       1.137031        30.9402 
 193   0.0000       1.183715        32.2105 
 194   0.0000       1.197836        32.5948 
 195   0.0000       1.216782        33.1103 
 196   0.0000       1.228743        33.4358 
 197   0.0000       1.260112        34.2894 
 198   0.0000       1.263292        34.3759 
 199   0.0000       1.274398        34.6781 
 200   0.0000       1.288021        35.0488 
 201   0.0000       1.312321        35.7101 
 202   0.0000       1.316085        35.8125 
 203   0.0000       1.341441        36.5025 
 204   0.0000       1.349334        36.7172 
 205   0.0000       1.352425        36.8014 
 206   0.0000       1.367571        37.2135 
 207   0.0000       1.389411        37.8078 
 208   0.0000       1.395189        37.9650 
 209   0.0000       1.401227        38.1293 
 210   0.0000       1.411585        38.4112 
 211   0.0000       1.421359        38.6771 
 212   0.0000       1.432458        38.9792 
 213   0.0000       1.461830        39.7784 
 214   0.0000       1.474175        40.1143 
 215   0.0000       1.494900        40.6783 
 216   0.0000       1.509211        41.0677 
 217   0.0000       1.552789        42.2535 
 218   0.0000       1.590998        43.2933 
 219   0.0000       1.597941        43.4822 
 220   0.0000       1.617201        44.0063 
 221   0.0000       1.637222        44.5511 
 222   0.0000       1.641371        44.6640 
 223   0.0000       1.651164        44.9304 
 224   0.0000       1.653107        44.9833 
 225   0.0000       1.656507        45.0759 
 226   0.0000       1.663862        45.2760 
 227   0.0000       1.667412        45.3726 
 228   0.0000       1.673153        45.5288 
 229   0.0000       1.677635        45.6508 
 230   0.0000       1.696977        46.1771 
 231   0.0000       1.738214        47.2992 
 232   0.0000       1.756743        47.8034 
 233   0.0000       1.778004        48.3820 
 234   0.0000       1.784764        48.5659 
 235   0.0000       1.804050        49.0907 
 236   0.0000       1.812012        49.3074 
 237   0.0000       1.814891        49.3857 
 238   0.0000       1.822055        49.5806 
 239   0.0000       1.823619        49.6232 
 240   0.0000       1.828487        49.7557 
 241   0.0000       1.835665        49.9510 
 242   0.0000       1.848777        50.3078 
 243   0.0000       1.854361        50.4597 
 244   0.0000       1.863746        50.7151 
 245   0.0000       1.883289        51.2469 
 246   0.0000       1.892776        51.5050 
 247   0.0000       1.893745        51.5314 
 248   0.0000       1.898369        51.6572 
 249   0.0000       1.900273        51.7091 
 250   0.0000       1.904305        51.8188 
 251   0.0000       1.912287        52.0360 
 252   0.0000       1.918412        52.2026 
 253   0.0000       1.920420        52.2573 
 254   0.0000       1.930534        52.5325 
 255   0.0000       1.934884        52.6509 
 256   0.0000       1.942851        52.8677 
 257   0.0000       1.943501        52.8853 
 258   0.0000       1.944383        52.9093 
 259   0.0000       1.947823        53.0030 
 260   0.0000       1.958503        53.2936 
 261   0.0000       1.974239        53.7218 
 262   0.0000       1.987101        54.0718 
 263   0.0000       1.990778        54.1718 
 264   0.0000       1.993912        54.2571 
 265   0.0000       2.000083        54.4250 
 266   0.0000       2.013643        54.7940 
 267   0.0000       2.033322        55.3295 
 268   0.0000       2.034519        55.3621 
 269   0.0000       2.042283        55.5734 
 270   0.0000       2.046180        55.6794 
 271   0.0000       2.074459        56.4489 
 272   0.0000       2.075429        56.4753 
 273   0.0000       2.084024        56.7092 
 274   0.0000       2.095907        57.0325 
 275   0.0000       2.100790        57.1654 
 276   0.0000       2.123411        57.7810 
 277   0.0000       2.126615        57.8681 
 278   0.0000       2.146140        58.3994 
 279   0.0000       2.150346        58.5139 
 280   0.0000       2.163083        58.8605 
 281   0.0000       2.166827        58.9623 
 282   0.0000       2.181605        59.3645 
 283   0.0000       2.203051        59.9481 
 284   0.0000       2.223425        60.5025 
 285   0.0000       2.231444        60.7207 
 286   0.0000       2.248166        61.1757 
 287   0.0000       2.249982        61.2251 
 288   0.0000       2.256939        61.4144 
 289   0.0000       2.280798        62.0637 
 290   0.0000       2.306140        62.7532 
 291   0.0000       2.315135        62.9980 
 292   0.0000       2.329059        63.3769 
 293   0.0000       2.349009        63.9198 
 294   0.0000       2.353646        64.0460 
 295   0.0000       2.362349        64.2828 
 296   0.0000       2.370270        64.4983 
 297   0.0000       2.374472        64.6127 
 298   0.0000       2.384911        64.8967 
 299   0.0000       2.411890        65.6309 
 300   0.0000       2.422638        65.9233 
 301   0.0000       2.427802        66.0639 
 302   0.0000       2.430537        66.1383 
 303   0.0000       2.446213        66.5648 
 304   0.0000       2.466135        67.1070 
 305   0.0000       2.470447        67.2243 
 306   0.0000       2.475726        67.3679 
 307   0.0000       2.477620        67.4195 
 308   0.0000       2.529235        68.8240 
 309   0.0000       2.549041        69.3629 
 310   0.0000       2.560426        69.6727 
 311   0.0000       2.563710        69.7621 
 312   0.0000       2.568963        69.9050 
 313   0.0000       2.573396        70.0257 
 314   0.0000       2.596576        70.6564 
 315   0.0000       2.600840        70.7725 
 316   0.0000       2.648372        72.0659 
 317   0.0000       2.656896        72.2978 
 318   0.0000       2.661192        72.4147 
 319   0.0000       2.669209        72.6329 
 320   0.0000       2.676352        72.8273 
 321   0.0000       2.689216        73.1773 
 322   0.0000       2.698574        73.4319 
 323   0.0000       2.745183        74.7002 
 324   0.0000       2.749142        74.8080 
 325   0.0000       2.758933        75.0744 
 326   0.0000       2.766970        75.2931 
 327   0.0000       2.773766        75.4780 
 328   0.0000       2.786069        75.8128 
 329   0.0000       2.790892        75.9440 
 330   0.0000       2.805418        76.3393 
 331   0.0000       2.838302        77.2341 
 332   0.0000       2.863703        77.9253 
 333   0.0000       2.874236        78.2119 
 334   0.0000       2.885271        78.5122 
 335   0.0000       2.917798        79.3973 
 336   0.0000       2.969946        80.8163 
 337   0.0000       2.973515        80.9135 
 338   0.0000       2.988942        81.3332 
 339   0.0000       2.999421        81.6184 
 340   0.0000       3.022100        82.2355 
 341   0.0000       3.023324        82.2688 
 342   0.0000       3.035625        82.6036 
 343   0.0000       3.036842        82.6367 
 344   0.0000       3.046196        82.8912 
 345   0.0000       3.064339        83.3849 
 346   0.0000       3.068980        83.5112 
 347   0.0000       3.073615        83.6373 
 348   0.0000       3.089024        84.0566 
 349   0.0000       3.104129        84.4676 
 350   0.0000       3.123864        85.0047 
 351   0.0000       3.135215        85.3135 
 352   0.0000       3.150323        85.7247 
 353   0.0000       3.172611        86.3311 
 354   0.0000       3.186798        86.7172 
 355   0.0000       3.197768        87.0157 
 356   0.0000       3.210120        87.3518 
 357   0.0000       3.264984        88.8447 
 358   0.0000       3.380391        91.9851 
 359   0.0000       3.394268        92.3627 
 360   0.0000       3.663678        99.6937 
 361   0.0000       3.762487       102.3825 

                    ********************************
                    * MULLIKEN POPULATION ANALYSIS *
                    ********************************

-----------------------
MULLIKEN ATOMIC CHARGES
-----------------------
   0 C :    0.008591
   1 H :    0.028824
   2 H :    0.033318
   3 H :    0.023296
   4 C :   -0.112409
   5 C :    0.008104
   6 C :   -0.036645
   7 C :    0.016112
   8 C :   -0.120350
   9 C :    0.013894
  10 C :   -0.041065
  11 H :   -0.002158
  12 H :    0.001091
  13 C :    0.001577
  14 C :   -0.124902
  15 C :   -0.084213
  16 C :   -0.061913
  17 C :   -0.083060
  18 C :   -0.124829
  19 C :    0.138684
  20 H :    0.019817
  21 H :    0.031891
  22 H :    0.032580
  23 H :   -0.027570
  24 C :    0.050301
  25 H :    0.029386
  26 H :    0.050239
  27 H :    0.034000
  28 H :   -0.027502
  29 C :    0.138871
  30 H :    0.019941
  31 H :    0.032521
  32 H :    0.031797
  33 H :    0.001190
  34 H :   -0.006286
  35 C :    0.008985
  36 H :    0.033092
  37 H :    0.023338
  38 H :    0.028821
  39 H :    0.012642
Sum of atomic charges:   -0.0000000

--------------------------------
MULLIKEN REDUCED ORBITAL CHARGES
--------------------------------
  0 C s       :     2.991535  s :     2.991535
      pz      :     1.006739  p :     2.971388
      px      :     0.998377
      py      :     0.966273
      dz2     :     0.008632  d :     0.028486
      dxz     :     0.002077
      dyz     :     0.005191
      dx2y2   :     0.008374
      dxy     :     0.004211
  1 H s       :     0.947364  s :     0.947364
      pz      :     0.005096  p :     0.023811
      px      :     0.014302
      py      :     0.004413
  2 H s       :     0.943123  s :     0.943123
      pz      :     0.006628  p :     0.023559
      px      :     0.006227
      py      :     0.010704
  3 H s       :     0.952862  s :     0.952862
      pz      :     0.013969  p :     0.023842
      px      :     0.005479
      py      :     0.004394
  4 C s       :     3.099634  s :     3.099634
      pz      :     1.020067  p :     2.968064
      px      :     0.945657
      py      :     1.002340
      dz2     :     0.010881  d :     0.044710
      dxz     :     0.005125
      dyz     :     0.007273
      dx2y2   :     0.012290
      dxy     :     0.009141
  5 C s       :     3.036519  s :     3.036519
      pz      :     0.975929  p :     2.911752
      px      :     0.971434
      py      :     0.964389
      dz2     :     0.010754  d :     0.043625
      dxz     :     0.014160
      dyz     :     0.006825
      dx2y2   :     0.005738
      dxy     :     0.006148
  6 C s       :     3.209745  s :     3.209745
      pz      :     0.884729  p :     2.791256
      px      :     0.908171
      py      :     0.998356
      dz2     :     0.008769  d :     0.035644
      dxz     :     0.012340
      dyz     :     0.003330
      dx2y2   :     0.005116
      dxy     :     0.006089
  7 C s       :     3.191714  s :     3.191714
      pz      :     0.894229  p :     2.756394
      px      :     0.878793
      py      :     0.983373
      dz2     :     0.008587  d :     0.035779
      dxz     :     0.012632
      dyz     :     0.003759
      dx2y2   :     0.004968
      dxy     :     0.005832
  8 C s       :     3.060071  s :     3.060071
      pz      :     1.020822  p :     3.016133
      px      :     0.996740
      py      :     0.998571
      dz2     :     0.011156  d :     0.044145
      dxz     :     0.014663
      dyz     :     0.006923
      dx2y2   :     0.005957
      dxy     :     0.005446
  9 C s       :     3.190048  s :     3.190048
      pz      :     0.887587  p :     2.760119
      px      :     0.888879
      py      :     0.983653
      dz2     :     0.008713  d :     0.035939
      dxz     :     0.012430
      dyz     :     0.003405
      dx2y2   :     0.005147
      dxy     :     0.006244
 10 C s       :     3.210673  s :     3.210673
      pz      :     0.884990  p :     2.794980
      px      :     0.911949
      py      :     0.998041
      dz2     :     0.008537  d :     0.035411
      dxz     :     0.012634
      dyz     :     0.003635
      dx2y2   :     0.004858
      dxy     :     0.005747
 11 H s       :     0.978790  s :     0.978790
      pz      :     0.011674  p :     0.023369
      px      :     0.006879
      py      :     0.004816
 12 H s       :     0.975732  s :     0.975732
      pz      :     0.012437  p :     0.023177
      px      :     0.006061
      py      :     0.004680
 13 C s       :     3.087206  s :     3.087206
      pz      :     1.025136  p :     2.869553
      px      :     0.883744
      py      :     0.960673
      dz2     :     0.003109  d :     0.041665
      dxz     :     0.005037
      dyz     :     0.006431
      dx2y2   :     0.013569
      dxy     :     0.013519
 14 C s       :     3.073028  s :     3.073028
      pz      :     0.968764  p :     3.006682
      px      :     0.953829
      py      :     1.084089
      dz2     :     0.003029  d :     0.045193
      dxz     :     0.007794
      dyz     :     0.006601
      dx2y2   :     0.013838
      dxy     :     0.013932
 15 C s       :     3.272096  s :     3.272096
      pz      :     1.031056  p :     2.777463
      px      :     0.912542
      py      :     0.833865
      dz2     :     0.002592  d :     0.034655
      dxz     :     0.005536
      dyz     :     0.003405
      dx2y2   :     0.010994
      dxy     :     0.012127
 16 C s       :     3.041031  s :     3.041031
      pz      :     0.965970  p :     2.975419
      px      :     1.003614
      py      :     1.005835
      dz2     :     0.002975  d :     0.045462
      dxz     :     0.006717
      dyz     :     0.007663
      dx2y2   :     0.014037
      dxy     :     0.014071
 17 C s       :     3.270818  s :     3.270818
      pz      :     1.031522  p :     2.777543
      px      :     0.911072
      py      :     0.834949
      dz2     :     0.002593  d :     0.034699
      dxz     :     0.005539
      dyz     :     0.003414
      dx2y2   :     0.011031
      dxy     :     0.012122
 18 C s       :     3.073372  s :     3.073372
      pz      :     0.968598  p :     3.006293
      px      :     0.954358
      py      :     1.083338
      dz2     :     0.003028  d :     0.045164
      dxz     :     0.007771
      dyz     :     0.006606
      dx2y2   :     0.013841
      dxy     :     0.013919
 19 C s       :     2.855713  s :     2.855713
      pz      :     1.026646  p :     2.977952
      px      :     0.996499
      py      :     0.954806
      dz2     :     0.005232  d :     0.027651
      dxz     :     0.007992
      dyz     :     0.002262
      dx2y2   :     0.004066
      dxy     :     0.008100
 20 H s       :     0.956229  s :     0.956229
      pz      :     0.005119  p :     0.023953
      px      :     0.008601
      py      :     0.010233
 21 H s       :     0.943310  s :     0.943310
      pz      :     0.011319  p :     0.024799
      px      :     0.008975
      py      :     0.004505
 22 H s       :     0.942795  s :     0.942795
      pz      :     0.011862  p :     0.024625
      px      :     0.008275
      py      :     0.004488
 23 H s       :     1.004332  s :     1.004332
      pz      :     0.005004  p :     0.023238
      px      :     0.006194
      py      :     0.012040
 24 C s       :     2.939648  s :     2.939648
      pz      :     1.028697  p :     2.982115
      px      :     0.947197
      py      :     1.006221
      dz2     :     0.005266  d :     0.027937
      dxz     :     0.005902
      dyz     :     0.004625
      dx2y2   :     0.007189
      dxy     :     0.004955
 25 H s       :     0.946629  s :     0.946629
      pz      :     0.006803  p :     0.023985
      px      :     0.005255
      py      :     0.011927
 26 H s       :     0.925467  s :     0.925467
      pz      :     0.013165  p :     0.024295
      px      :     0.005665
      py      :     0.005465
 27 H s       :     0.942167  s :     0.942167
      pz      :     0.007943  p :     0.023833
      px      :     0.005241
      py      :     0.010650
 28 H s       :     1.004265  s :     1.004265
      pz      :     0.005010  p :     0.023237
      px      :     0.006185
      py      :     0.012043
 29 C s       :     2.855585  s :     2.855585
      pz      :     1.026593  p :     2.977884
      px      :     0.996433
      py      :     0.954858
      dz2     :     0.005247  d :     0.027660
      dxz     :     0.007970
      dyz     :     0.002268
      dx2y2   :     0.004082
      dxy     :     0.008093
 30 H s       :     0.956130  s :     0.956130
      pz      :     0.005127  p :     0.023929
      px      :     0.008579
      py      :     0.010223
 31 H s       :     0.942895  s :     0.942895
      pz      :     0.011958  p :     0.024584
      px      :     0.008117
      py      :     0.004510
 32 H s       :     0.943346  s :     0.943346
      pz      :     0.011232  p :     0.024857
      px      :     0.009141
      py      :     0.004484
 33 H s       :     0.975518  s :     0.975518
      pz      :     0.011576  p :     0.023291
      px      :     0.007017
      py      :     0.004698
 34 H s       :     0.983177  s :     0.983177
      pz      :     0.012495  p :     0.023109
      px      :     0.005855
      py      :     0.004760
 35 C s       :     2.991380  s :     2.991380
      pz      :     1.006188  p :     2.971155
      px      :     0.998323
      py      :     0.966644
      dz2     :     0.008679  d :     0.028481
      dxz     :     0.002093
      dyz     :     0.005136
      dx2y2   :     0.008374
      dxy     :     0.004199
 36 H s       :     0.943333  s :     0.943333
      pz      :     0.006557  p :     0.023575
      px      :     0.006234
      py      :     0.010784
 37 H s       :     0.952831  s :     0.952831
      pz      :     0.013956  p :     0.023832
      px      :     0.005485
      py      :     0.004391
 38 H s       :     0.947370  s :     0.947370
      pz      :     0.005081  p :     0.023809
      px      :     0.014308
      py      :     0.004420
 39 H s       :     0.966378  s :     0.966378
      pz      :     0.013211  p :     0.020981
      px      :     0.004211
      py      :     0.003559


                     *******************************
                     * LOEWDIN POPULATION ANALYSIS *
                     *******************************

----------------------
LOEWDIN ATOMIC CHARGES
----------------------
   0 C :   -0.048607
   1 H :    0.023843
   2 H :    0.027166
   3 H :    0.021780
   4 C :   -0.037522
   5 C :   -0.019653
   6 C :   -0.031998
   7 C :   -0.022142
   8 C :   -0.023710
   9 C :   -0.020793
  10 C :   -0.028088
  11 H :    0.024830
  12 H :    0.030154
  13 C :   -0.041203
  14 C :   -0.016495
  15 C :   -0.048681
  16 C :   -0.025728
  17 C :   -0.049207
  18 C :   -0.016562
  19 C :   -0.047817
  20 H :    0.026273
  21 H :    0.036420
  22 H :    0.036862
  23 H :    0.021656
  24 C :   -0.050170
  25 H :    0.029954
  26 H :    0.038543
  27 H :    0.031847
  28 H :    0.021723
  29 C :   -0.047824
  30 H :    0.026334
  31 H :    0.036936
  32 H :    0.036302
  33 H :    0.029920
  34 H :    0.026554
  35 C :   -0.048531
  36 H :    0.027095
  37 H :    0.021834
  38 H :    0.023818
  39 H :    0.024886

-------------------------------
LOEWDIN REDUCED ORBITAL CHARGES
-------------------------------
  0 C s       :     2.831106  s :     2.831106
      pz      :     1.059075  p :     3.144205
      px      :     1.055001
      py      :     1.030129
      dz2     :     0.021756  d :     0.073296
      dxz     :     0.005434
      dyz     :     0.013335
      dx2y2   :     0.021604
      dxy     :     0.011167
  1 H s       :     0.909371  s :     0.909371
      pz      :     0.013432  p :     0.066785
      px      :     0.040096
      py      :     0.013256
  2 H s       :     0.906116  s :     0.906116
      pz      :     0.017974  p :     0.066718
      px      :     0.016798
      py      :     0.031946
  3 H s       :     0.911019  s :     0.911019
      pz      :     0.039412  p :     0.067200
      px      :     0.014391
      py      :     0.013398
  4 C s       :     2.829954  s :     2.829954
      pz      :     1.051806  p :     3.100974
      px      :     1.017696
      py      :     1.031473
      dz2     :     0.026987  d :     0.106594
      dxz     :     0.012268
      dyz     :     0.017178
      dx2y2   :     0.029775
      dxy     :     0.020386
  5 C s       :     2.847826  s :     2.847826
      pz      :     1.084239  p :     3.061862
      px      :     1.040048
      py      :     0.937574
      dz2     :     0.031209  d :     0.109965
      dxz     :     0.038609
      dyz     :     0.014239
      dx2y2   :     0.014121
      dxy     :     0.011787
  6 C s       :     2.850593  s :     2.850593
      pz      :     1.043367  p :     3.087260
      px      :     1.062553
      py      :     0.981340
[...]
      pz      :     0.004921  p :     0.023083
      px      :     0.013997
      py      :     0.004165
 39 H s       :     0.963194  s :     0.963194
      pz      :     0.013201  p :     0.020787
      px      :     0.004092
      py      :     0.003494


                     *******************************
                     * LOEWDIN POPULATION ANALYSIS *
                     *******************************

----------------------
LOEWDIN ATOMIC CHARGES
----------------------
   0 C :   -0.054390
   1 H :    0.026033
   2 H :    0.029100
   3 H :    0.023773
   4 C :   -0.040123
   5 C :   -0.020343
   6 C :   -0.034587
   7 C :   -0.024788
   8 C :   -0.024270
   9 C :   -0.023585
  10 C :   -0.030848
  11 H :    0.027776
  12 H :    0.032640
  13 C :   -0.039190
  14 C :   -0.017628
  15 C :   -0.048702
  16 C :   -0.027710
  17 C :   -0.049208
  18 C :   -0.017726
  19 C :   -0.053337
  20 H :    0.028229
  21 H :    0.037925
  22 H :    0.038302
  23 H :    0.024289
  24 C :   -0.055353
  25 H :    0.031774
  26 H :    0.039929
  27 H :    0.033691
  28 H :    0.024375
  29 C :   -0.053335
  30 H :    0.028261
  31 H :    0.038385
  32 H :    0.037778
  33 H :    0.032585
  34 H :    0.029113
  35 C :   -0.054336
  36 H :    0.029064
  37 H :    0.023815
  38 H :    0.026003
  39 H :    0.026618

-------------------------------
LOEWDIN REDUCED ORBITAL CHARGES
-------------------------------
  0 C s       :     2.841688  s :     2.841688
      pz      :     1.059022  p :     3.141410
      px      :     1.053429
      py      :     1.028959
      dz2     :     0.021427  d :     0.071292
      dxz     :     0.004900
      dyz     :     0.012811
      dx2y2   :     0.021012
      dxy     :     0.011142
  1 H s       :     0.909361  s :     0.909361
      pz      :     0.012796  p :     0.064606
      px      :     0.039491
      py      :     0.012319
  2 H s       :     0.906094  s :     0.906094
      pz      :     0.017226  p :     0.064806
      px      :     0.016070
      py      :     0.031509
  3 H s       :     0.911426  s :     0.911426
      pz      :     0.038818  p :     0.064801
      px      :     0.013426
      py      :     0.012557
  4 C s       :     2.834702  s :     2.834702
      pz      :     1.052181  p :     3.100433
      px      :     1.015690
      py      :     1.032562
      dz2     :     0.027126  d :     0.104988
      dxz     :     0.011285
      dyz     :     0.016398
      dx2y2   :     0.029439
      dxy     :     0.020740
  5 C s       :     2.854774  s :     2.854774
      pz      :     1.082239  p :     3.059035
      px      :     1.037946
      py      :     0.938850
      dz2     :     0.030098  d :     0.106535
      dxz     :     0.037937
      dyz     :     0.013695
      dx2y2   :     0.013659
      dxy     :     0.011146
  6 C s       :     2.858837  s :     2.858837
      pz      :     1.041929  p :     3.084796
      px      :     1.059953
      py      :     0.982913
      dz2     :     0.024016  d :     0.090954
      dxz     :     0.034530
      dyz     :     0.006054
      dx2y2   :     0.014173
      dxy     :     0.012181
  7 C s       :     2.859157  s :     2.859157
      pz      :     1.045276  p :     3.074431
      px      :     1.055932
      py      :     0.973223
      dz2     :     0.023659  d :     0.091200
      dxz     :     0.035170
      dyz     :     0.007071
      dx2y2   :     0.013645
      dxy     :     0.011656
  8 C s       :     2.846464  s :     2.846464
      pz      :     1.085620  p :     3.069417
      px      :     1.033128
      py      :     0.950669
      dz2     :     0.030694  d :     0.108389
      dxz     :     0.038959
      dyz     :     0.013704
      dx2y2   :     0.014688
      dxy     :     0.010344
  9 C s       :     2.858785  s :     2.858785
      pz      :     1.043500  p :     3.073324
      px      :     1.057243
      py      :     0.972581
      dz2     :     0.023822  d :     0.091476
      dxz     :     0.034628
      dyz     :     0.006254
      dx2y2   :     0.014213
      dxy     :     0.012559
 10 C s       :     2.856206  s :     2.856206
      pz      :     1.046346  p :     3.084205
      px      :     1.057851
      py      :     0.980008
      dz2     :     0.023617  d :     0.090438
      dxz     :     0.035323
      dyz     :     0.006706
      dx2y2   :     0.013447
      dxy     :     0.011345
 11 H s       :     0.905015  s :     0.905015
      pz      :     0.033395  p :     0.067208
      px      :     0.019592
      py      :     0.014221
 12 H s       :     0.900636  s :     0.900636
      pz      :     0.035380  p :     0.066724
      px      :     0.017370
      py      :     0.013973
 13 C s       :     2.842804  s :     2.842804
      pz      :     1.002724  p :     3.090361
      px      :     1.020224
      py      :     1.067414
      dz2     :     0.007251  d :     0.106025
      dxz     :     0.009915
      dyz     :     0.012854
      dx2y2   :     0.039036
      dxy     :     0.036969
 14 C s       :     2.851100  s :     2.851100
      pz      :     0.945708  p :     3.058341
      px      :     1.068279
      py      :     1.044354
      dz2     :     0.007007  d :     0.108186
      dxz     :     0.014655
      dyz     :     0.012174
      dx2y2   :     0.036987
      dxy     :     0.037363
 15 C s       :     2.855933  s :     2.855933
      pz      :     1.014630  p :     3.102551
      px      :     1.048699
      py      :     1.039221
      dz2     :     0.006103  d :     0.090219
      dxz     :     0.011279
      dyz     :     0.006330
      dx2y2   :     0.031695
      dxy     :     0.034811
 16 C s       :     2.850861  s :     2.850861
      pz      :     0.941717  p :     3.068210
      px      :     1.037942
      py      :     1.088551
      dz2     :     0.006957  d :     0.108639
      dxz     :     0.011490
      dyz     :     0.015354
      dx2y2   :     0.037497
      dxy     :     0.037342
 17 C s       :     2.856068  s :     2.856068
      pz      :     1.014873  p :     3.102868
      px      :     1.048782
      py      :     1.039212
      dz2     :     0.006111  d :     0.090272
      dxz     :     0.011290
      dyz     :     0.006349
      dx2y2   :     0.031734
      dxy     :     0.034788
 18 C s       :     2.851130  s :     2.851130
      pz      :     0.945793  p :     3.058457
      px      :     1.068120
      py      :     1.044543
      dz2     :     0.007004  d :     0.108139
      dxz     :     0.014600
      dyz     :     0.012199
      dx2y2   :     0.037017
      dxy     :     0.037319
 19 C s       :     2.829960  s :     2.829960
      pz      :     1.074161  p :     3.152391
      px      :     1.054854
      py      :     1.023376
      dz2     :     0.013526  d :     0.070986
      dxz     :     0.020631
      dyz     :     0.004702
      dx2y2   :     0.010190
      dxy     :     0.021937
 20 H s       :     0.907151  s :     0.907151
      pz      :     0.012740  p :     0.064620
      px      :     0.023164
      py      :     0.028715
 21 H s       :     0.896398  s :     0.896398
      pz      :     0.029596  p :     0.065677
      px      :     0.023705
      py      :     0.012375
 22 H s       :     0.896045  s :     0.896045
      pz      :     0.031511  p :     0.065653
      px      :     0.021802
      py      :     0.012341
 23 H s       :     0.908769  s :     0.908769
      pz      :     0.015073  p :     0.066943
      px      :     0.017975
      py      :     0.033894
 24 C s       :     2.832281  s :     2.832281
      pz      :     1.071835  p :     3.151848
      px      :     1.015511
      py      :     1.064502
      dz2     :     0.013487  d :     0.071224
      dxz     :     0.013964
      dyz     :     0.011811
      dx2y2   :     0.019359
      dxy     :     0.012604
 25 H s       :     0.903521  s :     0.903521
      pz      :     0.017029  p :     0.064705
      px      :     0.015533
      py      :     0.032142
 26 H s       :     0.895063  s :     0.895063
      pz      :     0.035964  p :     0.065008
      px      :     0.016271
      py      :     0.012772
 27 H s       :     0.901613  s :     0.901613
      pz      :     0.020537  p :     0.064696
      px      :     0.015497
      py      :     0.028663
 28 H s       :     0.908711  s :     0.908711
      pz      :     0.015058  p :     0.066913
      px      :     0.017943
      py      :     0.033912
 29 C s       :     2.829964  s :     2.829964
      pz      :     1.074142  p :     3.152381
      px      :     1.054815
      py      :     1.023424
      dz2     :     0.013537  d :     0.070990
      dxz     :     0.020606
      dyz     :     0.004715
      dx2y2   :     0.010216
      dxy     :     0.021917
 30 H s       :     0.907128  s :     0.907128
      pz      :     0.012762  p :     0.064611
      px      :     0.023129
      py      :     0.028720
 31 H s       :     0.895990  s :     0.895990
      pz      :     0.031714  p :     0.065625
      px      :     0.021524
      py      :     0.012387
 32 H s       :     0.896511  s :     0.896511
      pz      :     0.029383  p :     0.065711
      px      :     0.024000
      py      :     0.012328
 33 H s       :     0.900575  s :     0.900575
      pz      :     0.033057  p :     0.066840
      px      :     0.019782
      py      :     0.014000
 34 H s       :     0.904180  s :     0.904180
      pz      :     0.035238  p :     0.066708
      px      :     0.017234
      py      :     0.014236
 35 C s       :     2.841705  s :     2.841705
      pz      :     1.058889  p :     3.141337
      px      :     1.053440
      py      :     1.029008
      dz2     :     0.021441  d :     0.071294
      dxz     :     0.004921
      dyz     :     0.012791
      dx2y2   :     0.021025
      dxy     :     0.011116
 36 H s       :     0.906131  s :     0.906131
      pz      :     0.017170  p :     0.064806
      px      :     0.016072
      py      :     0.031565
 37 H s       :     0.911393  s :     0.911393
      pz      :     0.038814  p :     0.064792
      px      :     0.013436
      py      :     0.012543
 38 H s       :     0.909391  s :     0.909391
      pz      :     0.012785  p :     0.064606
      px      :     0.039501
      py      :     0.012320
 39 H s       :     0.908578  s :     0.908578
      pz      :     0.038102  p :     0.064804
      px      :     0.013698
      py      :     0.013004


                      *****************************
                      * MAYER POPULATION ANALYSIS *
                      *****************************

  NA   - Mulliken gross atomic population
  ZA   - Total nuclear charge
  QA   - Mulliken gross atomic charge
  VA   - Mayer's total valence
  BVA  - Mayer's bonded valence
  FA   - Mayer's free valence

  ATOM       NA         ZA         QA         VA         BVA        FA
  0 C      6.0106     6.0000    -0.0106     3.9480     3.9480    -0.0000
  1 H      0.9663     1.0000     0.0337     0.9902     0.9902     0.0000
  2 H      0.9623     1.0000     0.0377     0.9897     0.9897     0.0000
  3 H      0.9722     1.0000     0.0278     0.9983     0.9983     0.0000
  4 C      6.1057     6.0000    -0.1057     4.0595     4.0595    -0.0000
  5 C      6.0021     6.0000    -0.0021     3.8153     3.8153    -0.0000
  6 C      6.0409     6.0000    -0.0409     3.8958     3.8958    -0.0000
  7 C      5.9930     6.0000     0.0070     3.8759     3.8759    -0.0000
  8 C      6.1121     6.0000    -0.1121     3.9226     3.9226     0.0000
  9 C      5.9951     6.0000     0.0049     3.8997     3.8997     0.0000
 10 C      6.0452     6.0000    -0.0452     3.8647     3.8647     0.0000
 11 H      0.9931     1.0000     0.0069     0.9899     0.9899    -0.0000
 12 H      0.9905     1.0000     0.0095     0.9919     0.9919    -0.0000
 13 C      6.0023     6.0000    -0.0023     3.8696     3.8696     0.0000
 14 C      6.1163     6.0000    -0.1163     4.0722     4.0722     0.0000
 15 C      6.0842     6.0000    -0.0842     3.8907     3.8907    -0.0000
 16 C      6.0606     6.0000    -0.0606     3.9121     3.9121     0.0000
 17 C      6.0834     6.0000    -0.0834     3.8914     3.8914    -0.0000
 18 C      6.1162     6.0000    -0.1162     4.0714     4.0714    -0.0000
 19 C      5.8946     6.0000     0.1054     3.8890     3.8890    -0.0000
 20 H      0.9749     1.0000     0.0251     0.9971     0.9971    -0.0000
 21 H      0.9620     1.0000     0.0380     0.9990     0.9990    -0.0000
 22 H      0.9616     1.0000     0.0384     0.9991     0.9991    -0.0000
 23 H      1.0177     1.0000    -0.0177     1.0001     1.0001     0.0000
 24 C      5.9713     6.0000     0.0287     3.9074     3.9074    -0.0000
 25 H      0.9660     1.0000     0.0340     0.9951     0.9951     0.0000
 26 H      0.9456     1.0000     0.0544     0.9884     0.9884    -0.0000
 27 H      0.9614     1.0000     0.0386     0.9934     0.9934    -0.0000
 28 H      1.0176     1.0000    -0.0176     1.0000     1.0000     0.0000
 29 C      5.8944     6.0000     0.1056     3.8888     3.8888    -0.0000
 30 H      0.9748     1.0000     0.0252     0.9970     0.9970    -0.0000
 31 H      0.9615     1.0000     0.0385     0.9990     0.9990     0.0000
 32 H      0.9622     1.0000     0.0378     0.9991     0.9991     0.0000
 33 H      0.9901     1.0000     0.0099     0.9920     0.9920    -0.0000
 34 H      0.9972     1.0000     0.0028     0.9921     0.9921    -0.0000
 35 C      6.0102     6.0000    -0.0102     3.9479     3.9479    -0.0000
 36 H      0.9624     1.0000     0.0376     0.9897     0.9897     0.0000
 37 H      0.9722     1.0000     0.0278     0.9984     0.9984    -0.0000
 38 H      0.9663     1.0000     0.0337     0.9902     0.9902     0.0000
 39 H      0.9840     1.0000     0.0160     0.9781     0.9781     0.0000

  Mayer bond orders larger than 0.100000
B(  0-C ,  1-H ) :   0.9733 B(  0-C ,  2-H ) :   0.9716 B(  0-C ,  3-H ) :   0.9694 
B(  0-C ,  4-C ) :   1.0579 B(  4-C ,  5-C ) :   0.9812 B(  4-C , 35-C ) :   1.0578 
B(  4-C , 39-H ) :   0.9318 B(  5-C ,  6-C ) :   1.4189 B(  5-C , 10-C ) :   1.3638 
B(  6-C ,  7-C ) :   1.3766 B(  6-C , 34-H ) :   0.9900 B(  7-C ,  8-C ) :   1.4114 
B(  7-C , 33-H ) :   0.9889 B(  8-C ,  9-C ) :   1.3969 B(  8-C , 13-C ) :   0.9546 
B(  9-C , 10-C ) :   1.4050 B(  9-C , 12-H ) :   0.9893 B( 10-C , 11-H ) :   0.9926 
B( 13-C , 14-C ) :   1.4280 B( 13-C , 18-C ) :   1.4333 B( 14-C , 15-C ) :   1.3995 
B( 14-C , 29-C ) :   1.0643 B( 15-C , 16-C ) :   1.3793 B( 15-C , 28-H ) :   0.9914 
B( 16-C , 17-C ) :   1.3849 B( 16-C , 24-C ) :   1.0361 B( 17-C , 18-C ) :   1.3940 
B( 17-C , 23-H ) :   0.9903 B( 18-C , 19-C ) :   1.0642 B( 19-C , 20-H ) :   0.9618 
B( 19-C , 21-H ) :   0.9448 B( 19-C , 22-H ) :   0.9444 B( 24-C , 25-H ) :   0.9678 
B( 24-C , 26-H ) :   0.9602 B( 24-C , 27-H ) :   0.9670 B( 29-C , 30-H ) :   0.9617 
B( 29-C , 31-H ) :   0.9445 B( 29-C , 32-H ) :   0.9447 B( 35-C , 36-H ) :   0.9715 
B( 35-C , 37-H ) :   0.9694 B( 35-C , 38-H ) :   0.9733 

-------
TIMINGS
-------

Total SCF time: 0 days 0 hours 3 min 55 sec 

Total time                  ....     235.585 sec
Sum of individual times     ....     235.280 sec  ( 99.9%)

Fock matrix formation       ....     230.643 sec  ( 97.9%)
  XC integration            ....       8.211 sec  (  3.6% of F)
    Basis function eval.    ....       2.458 sec  ( 29.9% of XC)
    Density eval.           ....       1.750 sec  ( 21.3% of XC)
    XC-Functional eval.     ....       1.726 sec  ( 21.0% of XC)
    XC-Potential eval.      ....       2.054 sec  ( 25.0% of XC)
Diagonalization             ....       0.024 sec  (  0.0%)
Density matrix formation    ....       0.018 sec  (  0.0%)
Population analysis         ....       0.020 sec  (  0.0%)
Initial guess               ....       0.022 sec  (  0.0%)
Orbital Transformation      ....       0.000 sec  (  0.0%)
Orbital Orthonormalization  ....       0.017 sec  (  0.0%)
DIIS solution               ....       0.007 sec  (  0.0%)
SOSCF solution              ....       0.080 sec  (  0.0%)
Grid generation             ....       4.466 sec  (  1.9%)


-------------------------------------------------------------------------------
                          DFT DISPERSION CORRECTION                            
                                                                               
                              DFTD3 V3.1  Rev 1                                
                              USING zero damping                               
-------------------------------------------------------------------------------
The omegaB97X-D3 functional is recognized. Fit by Chai et al.
Active option DFTDOPT                   ...         3   

molecular C6(AA) [au] = 15449.434313 


            DFT-D V3
 parameters
 s6 scaling factor         :     1.0000 
 rs6 scaling factor        :     1.2810 
 s8 scaling factor         :     1.0000 
 rs8 scaling factor        :     1.0940 
 Damping factor alpha6     :    14.0000 
 Damping factor alpha8     :    16.0000 
 ad hoc parameters k1-k3   :    16.0000     1.3333    -4.0000 

 Edisp/kcal,au: -10.930236801892  -0.017418439223 
 E6   /kcal   :  -5.157894907 
 E8   /kcal   :  -5.772341895 
 % E8         :  52.810767045 

-------------------------   ----------------
Dispersion correction           -0.017418439
-------------------------   ----------------


-------------------------   --------------------
FINAL SINGLE POINT ENERGY      -698.515466668286
-------------------------   --------------------

                                *** OPTIMIZATION RUN DONE ***

                            ***************************************
                            *     ORCA property calculations      *
                            ***************************************

                                    ---------------------
                                    Active property flags
                                    ---------------------
   (+) Dipole Moment


------------------------------------------------------------------------------
                       ORCA ELECTRIC PROPERTIES CALCULATION
------------------------------------------------------------------------------

Dipole Moment Calculation                       ... on
Quadrupole Moment Calculation                   ... off
Polarizability Calculation                      ... off
GBWName                                         ... 059627639.gbw
Electron density file                           ... 059627639.scfp
The origin for moment calculation is the CENTER OF MASS  = ( 0.003330, -0.000063  0.003124)

-------------
DIPOLE MOMENT
-------------
                                X             Y             Z
Electronic contribution:      8.76819      -0.00590      -1.50617
Nuclear contribution   :     -8.97828       0.01244       1.47441
                        -----------------------------------------
Total Dipole Moment    :     -0.21009       0.00653      -0.03176
                        -----------------------------------------
Magnitude (a.u.)       :      0.21258
Magnitude (Debye)      :      0.54034



--------------------
Rotational spectrum 
--------------------
 
Rotational constants in cm-1:     0.037881     0.006429     0.005898 
Rotational constants in MHz :  1135.636766   192.746280   176.805983 

 Dipole components along the rotational axes: 
x,y,z [a.u.] :     0.210077     0.006432    -0.031886 
x,y,z [Debye]:     0.533974     0.016350    -0.081049 

 

Timings for individual modules:

Sum of individual times         ...     3029.444 sec (=  50.491 min)
GTO integral calculation        ...        2.065 sec (=   0.034 min)   0.1 %
SCF iterations                  ...     1978.209 sec (=  32.970 min)  65.3 %
SCF Gradient evaluation         ...     1047.974 sec (=  17.466 min)  34.6 %
Geometry relaxation             ...        1.196 sec (=   0.020 min)   0.0 %
                             ****ORCA TERMINATED NORMALLY****
TOTAL RUN TIME: 0 days 0 hours 50 minutes 30 seconds 929 msec
