
                                 *****************
                                 * O   R   C   A *
                                 *****************

           --- An Ab Initio, DFT and Semiempirical electronic structure package ---

                  #######################################################
                  #                        -***-                        #
                  #          Department of theory and spectroscopy      #
                  #               Directorship: Frank Neese             #
                  #        Max Planck Institute fuer Kohlenforschung    #
                  #                Kaiser Wilhelm Platz 1               #
                  #                 D-45470 Muelheim/Ruhr               #
                  #                      Germany                        #
                  #                                                     #
                  #                  All rights reserved                #
                  #                        -***-                        #
                  #######################################################


                         Program Version 4.2.0 -  RELEASE  -


 With contributions from (in alphabetic order):
   Daniel Aravena         : Magnetic Suceptibility
   Michael Atanasov       : Ab Initio Ligand Field Theory (pilot matlab implementation)
   Alexander A. Auer      : GIAO ZORA, VPT2
   Ute Becker             : Parallelization
   Giovanni Bistoni       : ED, misc. LED, open-shell LED, HFLED
   Martin Brehm           : Molecular dynamics
   Dmytro Bykov           : SCF Hessian
   Vijay G. Chilkuri      : MRCI spin determinant printing, contributions to CSF-ICE
   Dipayan Datta          : RHF DLPNO-CCSD density
   Achintya Kumar Dutta   : EOM-CC, STEOM-CC
   Dmitry Ganyushin       : Spin-Orbit,Spin-Spin,Magnetic field MRCI
   Miquel Garcia          : C-PCM Hessian, Gaussian charge scheme
   Yang Guo               : DLPNO-NEVPT2, CIM, IAO-localization
   Andreas Hansen         : Spin unrestricted coupled pair/coupled cluster methods
   Benjamin Helmich-Paris : CASSCF linear response (MC-RPA)
   Lee Huntington         : MR-EOM, pCC
   Robert Izsak           : Overlap fitted RIJCOSX, COSX-SCS-MP3, EOM
   Christian Kollmar      : KDIIS, OOCD, Brueckner-CCSD(T), CCSD density
   Simone Kossmann        : Meta GGA functionals, TD-DFT gradient, OOMP2, MP2 Hessian
   Martin Krupicka        : AUTO-CI
   Lucas Lang             : DCDCAS
   Dagmar Lenk            : GEPOL surface, SMD
   Dimitrios Liakos       : Extrapolation schemes; Compound Job, initial MDCI parallelization
   Dimitrios Manganas     : Further ROCIS development; embedding schemes
   Dimitrios Pantazis     : SARC Basis sets
   Taras Petrenko         : DFT Hessian,TD-DFT gradient, ASA, ECA, R-Raman, ABS, FL, XAS/XES, NRVS
   Peter Pinski           : DLPNO-MP2, DLPNO-MP2 Gradient
   Christoph Reimann      : Effective Core Potentials
   Marius Retegan         : Local ZFS, SOC
   Christoph Riplinger    : Optimizer, TS searches, QM/MM, DLPNO-CCSD(T), (RO)-DLPNO pert. Triples
   Tobias Risthaus        : Range-separated hybrids, TD-DFT gradient, RPA, STAB
   Michael Roemelt        : Original ROCIS implementation
   Masaaki Saitow         : Open-shell DLPNO-CCSD energy and density
   Barbara Sandhoefer     : DKH picture change effects
   Avijit Sen             : IP-ROCIS
   Kantharuban Sivalingam : CASSCF convergence, NEVPT2, FIC-MRCI
   Bernardo de Souza      : ESD, SOC TD-DFT
   Georgi Stoychev        : AutoAux, RI-MP2 NMR
   Willem Van den Heuvel  : Paramagnetic NMR
   Boris Wezisla          : Elementary symmetry handling
   Frank Wennmohs         : Technical directorship


 We gratefully acknowledge several colleagues who have allowed us to
 interface, adapt or use parts of their codes:
   Stefan Grimme, W. Hujo, H. Kruse,             : VdW corrections, initial TS optimization,
                  C. Bannwarth                     DFT functionals, gCP, sTDA/sTD-DF
   Ed Valeev, F. Pavosevic, A. Kumar             : LibInt (2-el integral package), F12 methods
   Garnet Chan, S. Sharma, J. Yang, R. Olivares  : DMRG
   Ulf Ekstrom                                   : XCFun DFT Library
   Mihaly Kallay                                 : mrcc  (arbitrary order and MRCC methods)
   Andreas Klamt, Michael Diedenhofen            : otool_cosmo (COSMO solvation model)
   Jiri Pittner, Ondrej Demel                    : Mk-CCSD
   Frank Weinhold                                : gennbo (NPA and NBO analysis)
   Christopher J. Cramer and Donald G. Truhlar   : smd solvation model
   Lars Goerigk                                  : TD-DFT with DH, B97 family of functionals
   V. Asgeirsson, H. Jonsson                     : NEB implementation
   FAccTs GmbH                                   : IRC, NEB, NEB-TS, Multilevel, MM, QM/MM, CI optimization
   S Lehtola, MJT Oliveira, MAL Marques          : LibXC Library


 Your calculation uses the libint2 library for the computation of 2-el integrals
 For citations please refer to: http://libint.valeyev.net

 Your ORCA version has been built with support for libXC version: 4.2.3
 For citations please refer to: https://tddft.org/programs/libxc/

 This ORCA versions uses:
   CBLAS   interface :  Fast vector & matrix operations
   LAPACKE interface :  Fast linear algebra routines
   SCALAPACK package :  Parallel linear algebra routines


Your calculation utilizes the atom-pairwise dispersion correction
with the zero-damping scheme (D30)
Cite in your paper:
S.Grimme, J.Antony, S.Ehrlich and H.Krieg, J.Chem.Phys., 132, (2010), 154104 
   

XCFun DFT library Copyright 2009-2010 Ulf Ekstrom and contributors.
See http://admol.org/xcfun for more information. This is free soft-
ware; see the source code for copying conditions. There is ABSOLUTELY
NO WARRANTY; not even for MERCHANTABILITY or FITNESS FOR A PARTICULAR
PURPOSE. For details see the documentation. Scientific users of this 
library should cite U. Ekstrom, L. Visscher, R. Bast, A. J. Thorvald-
sen and K. Ruud; J.Chem.Theor.Comp. 2010, DOI: 10.1021/ct100117s
XCFun Version 0.99 
----- Orbital basis set information -----
Your calculation utilizes the basis: def2-SVP
   F. Weigend and R. Ahlrichs, Phys. Chem. Chem. Phys. 7, 3297 (2005).

================================================================================
                                        WARNINGS
                       Please study these warnings very carefully!
================================================================================


WARNING: Geometry Optimization
  ===> : Switching off AutoStart
         For restart on a previous wavefunction, please use MOREAD

INFO   : the flag for use of LIBINT has been found!

================================================================================
                                       INPUT FILE
================================================================================
NAME = 012616689.inp
|  1> # ORCA input file
|  2> # -36.72649503
|  3> ! wB97X-D3 def2-SVP Opt
|  4> * xyz 0 1
|  5>    C       -3.87530         0.52470        -0.04830
|  6>    H       -4.71850        -0.15960        -0.11560
|  7>    O       -2.71610        -0.26790        -0.05330
|  8>    C       -1.53950         0.50110         0.02970
|  9>    C       -0.32850        -0.38430         0.02290
| 10>    C       -0.49920        -1.76550         0.02350
| 11>    C        0.58000        -2.62860         0.01570
| 12>    C        1.87520        -2.13060         0.00450
| 13>    C        2.07290        -0.76730        -0.00010
| 14>    C        0.98500         0.10570         0.00980
| 15>    N        1.28750         1.51120         0.00430
| 16>    O        0.37540         2.30400         0.13980
| 17>    O        2.44830         1.83790        -0.13560
| 18>    H        3.06650        -0.34550        -0.00920
| 19>    H        2.72090        -2.80020        -0.00020
| 20>    H        0.41120        -3.69470         0.01880
| 21>    H       -1.50690        -2.14660         0.02900
| 22>    H       -1.54600         1.10840         0.94990
| 23>    H       -1.48970         1.21110        -0.81210
| 24>    H       -3.89200         1.21170        -0.90310
| 25>    H       -3.95240         1.11190         0.87480
| 26> *
| 27> 
| 28>                          ****END OF INPUT****
================================================================================

                       *****************************
                       * Geometry Optimization Run *
                       *****************************

Geometry optimization settings:
Update method            Update   .... BFGS
Choice of coordinates    CoordSys .... Z-matrix Internals
Initial Hessian          InHess   .... Almoef's Model

Convergence Tolerances:
Energy Change            TolE     ....  5.0000e-06 Eh
Max. Gradient            TolMAXG  ....  3.0000e-04 Eh/bohr
RMS Gradient             TolRMSG  ....  1.0000e-04 Eh/bohr
Max. Displacement        TolMAXD  ....  4.0000e-03 bohr
RMS Displacement         TolRMSD  ....  2.0000e-03 bohr
Strict Convergence                ....  False
------------------------------------------------------------------------------
                        ORCA OPTIMIZATION COORDINATE SETUP
------------------------------------------------------------------------------

The optimization will be done in new redundant internal coordinates
Making redundant internal coordinates   ...  (new redundants) done
Evaluating the initial hessian          ...  (Almloef) done
Evaluating the coordinates              ...  done
Calculating the B-matrix                .... done
Calculating the G-matrix                .... done
Diagonalizing the G-matrix              .... done
Small eigenvalue found = 1.050e-02
The first mode is                       ....   38
The number of degrees of freedom        ....   57

    -----------------------------------------------------------------
                    Redundant Internal Coordinates


    -----------------------------------------------------------------
         Definition                    Initial Value    Approx d2E/dq
    -----------------------------------------------------------------
      1. B(H   1,C   0)                  1.0880         0.362732   
      2. B(O   2,C   0)                  1.4043         0.531010   
      3. B(C   3,O   2)                  1.4081         0.523672   
      4. B(C   4,C   3)                  1.5002         0.416845   
      5. B(C   5,C   4)                  1.3917         0.620887   
      6. B(C   6,C   5)                  1.3819         0.643644   
      7. B(C   7,C   6)                  1.3877         0.630130   
      8. B(C   8,C   7)                  1.3776         0.653993   
      9. B(C   9,C   8)                  1.3949         0.613644   
     10. B(C   9,C   4)                  1.4020         0.597891   
     11. B(N  10,C   9)                  1.4377         0.469657   
     12. B(O  11,N  10)                  1.2161         0.949537   
     13. B(O  12,N  10)                  1.2140         0.956823   
     14. B(H  13,C   8)                  1.0795         0.374313   
     15. B(H  14,C   7)                  1.0787         0.375362   
     16. B(H  15,C   6)                  1.0794         0.374420   
     17. B(H  16,C   5)                  1.0774         0.377201   
     18. B(H  17,C   3)                  1.1026         0.343871   
     19. B(H  18,C   3)                  1.1024         0.344109   
     20. B(H  19,C   0)                  1.0968         0.351239   
     21. B(H  20,C   0)                  1.0968         0.351280   
     22. A(H  19,C   0,H  20)          108.6350         0.288581   
     23. A(H   1,C   0,H  20)          109.5310         0.290041   
     24. A(H   1,C   0,O   2)          106.5307         0.342135   
     25. A(O   2,C   0,H  19)          111.3051         0.340297   
     26. A(H   1,C   0,H  19)          109.5085         0.290036   
     27. A(O   2,C   0,H  20)          111.2979         0.340303   
     28. A(C   0,O   2,C   3)          112.4156         0.404426   
     29. A(C   4,C   3,H  18)          109.8892         0.327762   
     30. A(C   4,C   3,H  17)          109.4894         0.327724   
     31. A(O   2,C   3,H  17)          110.1874         0.338307   
     32. A(O   2,C   3,H  18)          110.1506         0.338346   
     33. A(O   2,C   3,C   4)          110.6064         0.390087   
     34. A(H  17,C   3,H  18)          106.4296         0.286701   
     35. A(C   5,C   4,C   9)          117.5023         0.431352   
     36. A(C   3,C   4,C   5)          119.1259         0.404514   
     37. A(C   3,C   4,C   9)          123.3712         0.401830   
     38. A(C   6,C   5,H  16)          120.6335         0.357964   
     39. A(C   4,C   5,C   6)          121.6053         0.437114   
     40. A(C   4,C   5,H  16)          117.7611         0.355781   
     41. A(C   5,C   6,C   7)          120.3184         0.438280   
     42. A(C   7,C   6,H  15)          120.0291         0.356227   
     43. A(C   5,C   6,H  15)          119.6525         0.357513   
     44. A(C   6,C   7,C   8)          119.2834         0.439544   
     45. A(C   8,C   7,H  14)          120.1184         0.358638   
     46. A(C   6,C   7,H  14)          120.5982         0.356379   
     47. A(C   7,C   8,C   9)          120.4919         0.437447   
     48. A(C   9,C   8,H  13)          118.2542         0.354611   
     49. A(C   7,C   8,H  13)          121.2538         0.358467   
     50. A(C   8,C   9,N  10)          116.5968         0.409629   
     51. A(C   4,C   9,N  10)          122.6048         0.407747   
     52. A(C   4,C   9,C   8)          120.7983         0.430444   
     53. A(C   9,N  10,O  12)          117.6919         0.437672   
     54. A(C   9,N  10,O  11)          118.6266         0.437069   
     55. A(O  11,N  10,O  12)          123.6815         0.494467   
     56. D(C   3,O   2,C   0,H  20)    -60.6795         0.022396   
     57. D(C   3,O   2,C   0,H   1)    179.9801         0.022396   
     58. D(C   3,O   2,C   0,H  19)     60.6629         0.022396   
     59. D(H  17,C   3,O   2,C   0)     58.7342         0.021754   
     60. D(C   4,C   3,O   2,C   0)    179.9334         0.021754   
     61. D(H  18,C   3,O   2,C   0)    -58.3898         0.021754   
     62. D(C   5,C   4,C   3,O   2)     -3.8815         0.012855   
     63. D(C   9,C   4,C   3,H  17)    -62.5669         0.012855   
     64. D(C   9,C   4,C   3,H  18)     53.9907         0.012855   
     65. D(C   5,C   4,C   3,H  17)    117.7302         0.012855   
     66. D(C   5,C   4,C   3,H  18)   -125.7122         0.012855   
     67. D(C   9,C   4,C   3,O   2)    175.8215         0.012855   
     68. D(H  16,C   5,C   4,C   3)     -0.0065         0.026680   
     69. D(C   6,C   5,C   4,C   9)      0.1958         0.026680   
     70. D(C   6,C   5,C   4,C   3)    179.9161         0.026680   
     71. D(H  16,C   5,C   4,C   9)   -179.7268         0.026680   
     72. D(H  15,C   6,C   5,H  16)     -0.2250         0.028806   
     73. D(H  15,C   6,C   5,C   4)    179.8545         0.028806   
     74. D(C   7,C   6,C   5,H  16)    179.8018         0.028806   
     75. D(C   7,C   6,C   5,C   4)     -0.1186         0.028806   
     76. D(H  14,C   7,C   6,H  15)     -0.0607         0.027531   
     77. D(H  14,C   7,C   6,C   5)    179.9123         0.027531   
     78. D(C   8,C   7,C   6,H  15)    179.9627         0.027531   
     79. D(C   8,C   7,C   6,C   5)     -0.0642         0.027531   
     80. D(H  13,C   8,C   7,H  14)      0.0493         0.029806   
     81. D(H  13,C   8,C   7,C   6)   -179.9740         0.029806   
     82. D(C   9,C   8,C   7,H  14)   -179.8150         0.029806   
     83. D(C   9,C   8,C   7,C   6)      0.1617         0.029806   
     84. D(N  10,C   9,C   4,C   3)      0.1239         0.024634   
     85. D(C   8,C   9,C   4,C   5)     -0.0966         0.024634   
     86. D(C   8,C   9,C   4,C   3)   -179.8041         0.024634   
     87. D(N  10,C   9,C   8,H  13)      0.1189         0.026025   
     88. D(N  10,C   9,C   8,C   7)    179.9872         0.026025   
     89. D(C   4,C   9,C   8,H  13)   -179.9489         0.026025   
     90. D(C   4,C   9,C   8,C   7)     -0.0806         0.026025   
     91. D(N  10,C   9,C   4,C   5)    179.8314         0.024634   
     92. D(O  12,N  10,C   9,C   8)      6.7976         0.017387   
     93. D(O  12,N  10,C   9,C   4)   -173.1332         0.017387   
     94. D(O  11,N  10,C   9,C   8)   -173.1509         0.017387   
     95. D(O  11,N  10,C   9,C   4)      6.9183         0.017387   
    -----------------------------------------------------------------

Number of atoms                         .... 21
Number of degrees of freedom            .... 95

         *************************************************************
         *                GEOMETRY OPTIMIZATION CYCLE   1            *
         *************************************************************
---------------------------------
CARTESIAN COORDINATES (ANGSTROEM)
---------------------------------
  C     -3.875300    0.524700   -0.048300
  H     -4.718500   -0.159600   -0.115600
  O     -2.716100   -0.267900   -0.053300
  C     -1.539500    0.501100    0.029700
  C     -0.328500   -0.384300    0.022900
  C     -0.499200   -1.765500    0.023500
  C      0.580000   -2.628600    0.015700
  C      1.875200   -2.130600    0.004500
  C      2.072900   -0.767300   -0.000100
  C      0.985000    0.105700    0.009800
  N      1.287500    1.511200    0.004300
  O      0.375400    2.304000    0.139800
  O      2.448300    1.837900   -0.135600
  H      3.066500   -0.345500   -0.009200
  H      2.720900   -2.800200   -0.000200
  H      0.411200   -3.694700    0.018800
  H     -1.506900   -2.146600    0.029000
  H     -1.546000    1.108400    0.949900
  H     -1.489700    1.211100   -0.812100
  H     -3.892000    1.211700   -0.903100
  H     -3.952400    1.111900    0.874800

----------------------------
CARTESIAN COORDINATES (A.U.)
----------------------------
  NO LB      ZA    FRAG     MASS         X           Y           Z
   0 C     6.0000    0    12.011   -7.323256    0.991539   -0.091274
   1 H     1.0000    0     1.008   -8.916673   -0.301600   -0.218452
   2 O     8.0000    0    15.999   -5.132685   -0.506258   -0.100722
   3 C     6.0000    0    12.011   -2.909233    0.946942    0.056125
   4 C     6.0000    0    12.011   -0.620775   -0.726222    0.043275
   5 C     6.0000    0    12.011   -0.943351   -3.336311    0.044409
   6 C     6.0000    0    12.011    1.096041   -4.967334    0.029669
   7 C     6.0000    0    12.011    3.543614   -4.026251    0.008504
   8 C     6.0000    0    12.011    3.917213   -1.449987   -0.000189
   9 C     6.0000    0    12.011    1.861380    0.199744    0.018519
  10 N     7.0000    0    14.007    2.433022    2.855754    0.008126
  11 O     8.0000    0    15.999    0.709403    4.353929    0.264184
  12 O     8.0000    0    15.999    4.626616    3.473128   -0.256247
  13 H     1.0000    0     1.008    5.794845   -0.652900   -0.017385
  14 H     1.0000    0     1.008    5.141756   -5.291611   -0.000378
  15 H     1.0000    0     1.008    0.777055   -6.981971    0.035527
  16 H     1.0000    0     1.008   -2.847628   -4.056486    0.054802
  17 H     1.0000    0     1.008   -2.921517    2.094572    1.795051
  18 H     1.0000    0     1.008   -2.815125    2.288647   -1.534647
  19 H     1.0000    0     1.008   -7.354814    2.289781   -1.706612
  20 H     1.0000    0     1.008   -7.468954    2.101186    1.653132

--------------------------------
INTERNAL COORDINATES (ANGSTROEM)
--------------------------------
 C      0   0   0     0.000000000000     0.00000000     0.00000000
 H      1   0   0     1.088017472286     0.00000000     0.00000000
 O      1   2   0     1.404273620061   106.53070579     0.00000000
 C      3   1   2     1.408061632174   112.41562197   179.98010963
 C      4   3   1     1.500166790727   110.60640067   179.93341537
 C      5   4   3     1.391708406959   119.12589119   356.11850698
 C      6   5   4     1.381909942797   121.60530585   179.91614906
 C      7   6   5     1.387686016360   120.31842619   359.88141581
 C      8   7   6     1.377567907582   119.28339908   359.93576132
 C      9   8   7     1.394902656102   120.49188353     0.16168371
 N     10   9   8     1.437694943303   116.59684644   179.98724856
 O     11  10   9     1.216066815599   118.62658231   186.84908035
 O     11  10   9     1.213985807166   117.69185446     6.79762503
 H      9   8   7     1.079462370812   121.25377288   180.02599836
 H      8   7   6     1.078700486697   120.59820418   179.91234933
 H      7   6   5     1.079385130526   119.65248037   179.85453777
 H      6   5   4     1.077370293817   117.76111677     0.00000000
 H      4   3   1     1.102553209600   110.18740727    58.73423772
 H      4   3   1     1.102364404360   110.15062443   301.61023494
 H      1   2   3     1.096782079540   109.50849953   120.47967475
 H      1   2   3     1.096750591520   109.53100063   239.51649141

---------------------------
INTERNAL COORDINATES (A.U.)
---------------------------
 C      0   0   0     0.000000000000     0.00000000     0.00000000
 H      1   0   0     2.056055051542     0.00000000     0.00000000
 O      1   2   0     2.653692559006   106.53070579     0.00000000
 C      3   1   2     2.660850864491   112.41562197   179.98010963
 C      4   3   1     2.834904389677   110.60640067   179.93341537
 C      5   4   3     2.629947747428   119.12589119   356.11850698
 C      6   5   4     2.611431333628   121.60530585   179.91614906
 C      7   6   5     2.622346530792   120.31842619   359.88141581
 C      8   7   6     2.603226076209   119.28339908   359.93576132
 C      9   8   7     2.635984003512   120.49188353     0.16168371
 N     10   9   8     2.716849706967   116.59684644   179.98724856
 O     11  10   9     2.298033242031   118.62658231   186.84908035
 O     11  10   9     2.294100706011   117.69185446     6.79762503
 H      9   8   7     2.039888252709   121.25377288   180.02599836
 H      8   7   6     2.038448500385   120.59820418   179.91234933
 H      7   6   5     2.039742289720   119.65248037   179.85453777
 H      6   5   4     2.035934800137   117.76111677     0.00000000
 H      4   3   1     2.083523614221   110.18740727    58.73423772
 H      4   3   1     2.083166824024   110.15062443   301.61023494
 H      1   2   3     2.072617758923   109.50849953   120.47967475
 H      1   2   3     2.072558255189   109.53100063   239.51649141

---------------------
BASIS SET INFORMATION
---------------------
There are 4 groups of distinct atoms

 Group   1 Type C   : 7s4p1d contracted to 3s2p1d pattern {511/31/1}
 Group   2 Type H   : 4s1p contracted to 2s1p pattern {31/1}
 Group   3 Type O   : 7s4p1d contracted to 3s2p1d pattern {511/31/1}
 Group   4 Type N   : 7s4p1d contracted to 3s2p1d pattern {511/31/1}

Atom   0C    basis set group =>   1
Atom   1H    basis set group =>   2
Atom   2O    basis set group =>   3
Atom   3C    basis set group =>   1
Atom   4C    basis set group =>   1
Atom   5C    basis set group =>   1
Atom   6C    basis set group =>   1
Atom   7C    basis set group =>   1
Atom   8C    basis set group =>   1
Atom   9C    basis set group =>   1
Atom  10N    basis set group =>   4
Atom  11O    basis set group =>   3
Atom  12O    basis set group =>   3
Atom  13H    basis set group =>   2
Atom  14H    basis set group =>   2
Atom  15H    basis set group =>   2
Atom  16H    basis set group =>   2
Atom  17H    basis set group =>   2
Atom  18H    basis set group =>   2
Atom  19H    basis set group =>   2
Atom  20H    basis set group =>   2
------------------------------------------------------------------------------
                           ORCA GTO INTEGRAL CALCULATION
------------------------------------------------------------------------------

                         BASIS SET STATISTICS AND STARTUP INFO

 # of primitive gaussian shells          ...  189
 # of primitive gaussian functions       ...  351
 # of contracted shells                  ...   99
 # of contracted basis functions         ...  213
 Highest angular momentum                ...    2
 Maximum contraction depth               ...    5
 Integral package used                   ... LIBINT
 Integral threshhold            Thresh   ...  2.500e-11
 Primitive cut-off              TCut     ...  2.500e-12


------------------------------ INTEGRAL EVALUATION ----------------------------


 * One electron integrals 
 Pre-screening matrix                    ... done
 Shell pair data                         ... done (   0.001 sec)

-------------------------------------------------------------------------------
                                 ORCA SCF
-------------------------------------------------------------------------------

------------
SCF SETTINGS
------------
Hamiltonian:
 Density Functional     Method          .... DFT(GTOs)
 Exchange Functional    Exchange        .... WB97X-D3
 Correlation Functional Correlation     .... WB97X-D3
 Gradients option       PostSCFGGA      .... off
 Hybrid DFT is turned on
   Fraction HF Exchange ScalHFX         ....  0.195728
   Scaling of DF-GGA-X  ScalDFX         ....  0.000000
   Scaling of DF-GGA-C  ScalDFC         ....  1.000000
   Scaling of DF-LDA-C  ScalLDAC        ....  1.000000
   Perturbative correction              ....  0.000000
   Density functional embedding theory  .... OFF
 Long-range corrected/Screened/Range-Separated Hybrid DFT is turned on
   Amount of maximum screened exact exchange              ....  0.804272
   Range separation parameter mu (erf(mu*r12)/r12)        ....  0.250000


General Settings:
 Integral files         IntName         .... 012616689
 Hartree-Fock type      HFTyp           .... RHF
 Total Charge           Charge          ....    0
 Multiplicity           Mult            ....    1
 Number of Electrons    NEL             ....   88
 Basis Dimension        Dim             ....  213
 Nuclear Repulsion      ENuc            ....    694.6333910239 Eh

Convergence Acceleration:
 DIIS                   CNVDIIS         .... on
   Start iteration      DIISMaxIt       ....    12
   Startup error        DIISStart       ....  0.200000
   # of expansion vecs  DIISMaxEq       ....     5
   Bias factor          DIISBfac        ....   1.050
   Max. coefficient     DIISMaxC        ....  10.000
 Newton-Raphson         CNVNR           .... off
 SOSCF                  CNVSOSCF        .... on
   Start iteration      SOSCFMaxIt      ....   150
   Startup grad/error   SOSCFStart      ....  0.003300
 Level Shifting         CNVShift        .... on
   Level shift para.    LevelShift      ....    0.2500
   Turn off err/grad.   ShiftErr        ....    0.0010
 Zerner damping         CNVZerner       .... off
 Static damping         CNVDamp         .... on
   Fraction old density DampFac         ....    0.7000
   Max. Damping (<1)    DampMax         ....    0.9800
   Min. Damping (>=0)   DampMin         ....    0.0000
   Turn off err/grad.   DampErr         ....    0.1000
 Fernandez-Rico         CNVRico         .... off

SCF Procedure:
 Maximum # iterations   MaxIter         ....   125
 SCF integral mode      SCFMode         .... Direct
   Integral package                     .... LIBINT
 Reset frequency        DirectResetFreq ....    20
 Integral Threshold     Thresh          ....  2.500e-11 Eh
 Primitive CutOff       TCut            ....  2.500e-12 Eh

Convergence Tolerance:
 Convergence Check Mode ConvCheckMode   .... Total+1el-Energy
 Convergence forced     ConvForced      .... 0
 Energy Change          TolE            ....  1.000e-08 Eh
 1-El. energy change                    ....  1.000e-05 Eh
 Orbital Gradient       TolG            ....  1.000e-05
 Orbital Rotation angle TolX            ....  1.000e-05
 DIIS Error             TolErr          ....  5.000e-07


Diagonalization of the overlap matrix:
Smallest eigenvalue                        ... 2.300e-04
Time for diagonalization                   ...    0.038 sec
Threshold for overlap eigenvalues          ... 1.000e-08
Number of eigenvalues below threshold      ... 0
Time for construction of square roots      ...    0.003 sec
Total time needed                          ...    0.042 sec

-------------------
DFT GRID GENERATION
-------------------

General Integration Accuracy     IntAcc      ...  4.340
Radial Grid Type                 RadialGrid  ... Gauss-Chebyshev
Angular Grid (max. acc.)         AngularGrid ... Lebedev-110
Angular grid pruning method      GridPruning ... 3 (G Style)
Weight generation scheme         WeightScheme... Becke
Basis function cutoff            BFCut       ...    1.0000e-11
Integration weight cutoff        WCut        ...    1.0000e-14
Grids for H and He will be reduced by one unit

# of grid points (after initial pruning)     ...  27244 (   0.0 sec)
# of grid points (after weights+screening)   ...  24976 (   0.1 sec)
nearest neighbour list constructed           ...    0.0 sec
Grid point re-assignment to atoms done       ...    0.0 sec
Grid point division into batches done        ...    0.0 sec
Reduced shell lists constructed in    0.2 sec

Total number of grid points                  ...    24976
Total number of batches                      ...      400
Average number of points per batch           ...       62
Average number of grid points per atom       ...     1189
Average number of shells per batch           ...    62.17 (62.80%)
Average number of basis functions per batch  ...   130.19 (61.12%)
Average number of large shells per batch     ...    45.88 (73.80%)
Average number of large basis fcns per batch ...    95.59 (73.42%)
Maximum spatial batch extension              ...  18.87, 19.67, 22.18 au
Average spatial batch extension              ...   3.32,  3.55,  4.10 au

Time for grid setup =    0.269 sec

------------------------------
INITIAL GUESS: MODEL POTENTIAL
------------------------------
Loading Hartree-Fock densities                     ... done
Calculating cut-offs                               ... done
Setting up the integral package                    ... done
Initializing the effective Hamiltonian             ... done
Starting the Coulomb interaction                   ... done (   0.2 sec)
Reading the grid                                   ... done
Mapping shells                                     ... done
Starting the XC term evaluation                    ... done (   0.3 sec)
  promolecular density results
     # of electrons  =     88.008188580
     EX              =    -74.608986713
     EC              =     -2.967896185
     EX+EC           =    -77.576882899
Transforming the Hamiltonian                       ... done (   0.0 sec)
Diagonalizing the Hamiltonian                      ... done (   0.0 sec)
Back transforming the eigenvectors                 ... done (   0.0 sec)
Now organizing SCF variables                       ... done
                      ------------------
                      INITIAL GUESS DONE (   0.8 sec)
                      ------------------
--------------
SCF ITERATIONS
--------------
ITER       Energy         Delta-E        Max-DP      RMS-DP      [F,P]     Damp
               ***  Starting incremental Fock matrix formation  ***
  0   -589.7160259816   0.000000000000 0.07031026  0.00202565  0.2101047 0.7000
  1   -589.8259365184  -0.109910536792 0.03802935  0.00139966  0.0934579 0.7000
                               ***Turning on DIIS***
  2   -589.8754461751  -0.049509656757 0.05710884  0.00275405  0.0381274 0.0000
  3   -589.9608505877  -0.085404412618 0.03890591  0.00081741  0.0515518 0.0000
  4   -589.9726136472  -0.011763059454 0.01054781  0.00020648  0.0112991 0.0000
                      *** Initiating the SOSCF procedure ***
                           *** Shutting down DIIS ***
                      *** Re-Reading the Fockian *** 
                      *** Removing any level shift *** 
ITER      Energy       Delta-E        Grad      Rot      Max-DP    RMS-DP
  5   -589.97315614  -0.0005424931  0.000926  0.000926  0.002788  0.000070
               *** Restarting incremental Fock matrix formation ***
  6   -589.97319921  -0.0000430744  0.000520  0.001139  0.001488  0.000043
  7   -589.97321056  -0.0000113424  0.000312  0.001229  0.001111  0.000036
  8   -589.97321301  -0.0000024517  0.000293  0.000395  0.000635  0.000012
  9   -589.97321393  -0.0000009198  0.000125  0.000164  0.000235  0.000007
 10   -589.97321410  -0.0000001725  0.000043  0.000111  0.000094  0.000003
 11   -589.97321419  -0.0000000856  0.000009  0.000010  0.000038  0.000001
 12   -589.97321419  -0.0000000029  0.000007  0.000008  0.000014  0.000000
                  ***Gradient check signals convergence***
              ***Rediagonalizing the Fockian in SOSCF/NRSCF***

               *****************************************************
               *                     SUCCESS                       *
               *           SCF CONVERGED AFTER  13 CYCLES          *
               *****************************************************

Setting up the final grid:

General Integration Accuracy     IntAcc      ...  4.670
Radial Grid Type                 RadialGrid  ... Gauss-Chebyshev
Angular Grid (max. acc.)         AngularGrid ... Lebedev-302
Angular grid pruning method      GridPruning ... 3 (G Style)
Weight generation scheme         WeightScheme... Becke
Basis function cutoff            BFCut       ...    1.0000e-11
Integration weight cutoff        WCut        ...    1.0000e-14
Grids for H and He will be reduced by one unit

# of grid points (after initial pruning)     ... 105090 (   0.0 sec)
# of grid points (after weights+screening)   ...  94846 (   0.3 sec)
nearest neighbour list constructed           ...    0.0 sec
Grid point re-assignment to atoms done       ...    0.0 sec
Grid point division into batches done        ...    0.3 sec
Reduced shell lists constructed in    0.9 sec

Total number of grid points                  ...    94846
Total number of batches                      ...     1492
Average number of points per batch           ...       63
Average number of grid points per atom       ...     4516
Average number of shells per batch           ...    56.63 (57.20%)
Average number of basis functions per batch  ...   117.43 (55.13%)
Average number of large shells per batch     ...    40.97 (72.35%)
Average number of large basis fcns per batch ...    84.50 (71.96%)
Maximum spatial batch extension              ...  18.59, 18.66, 20.03 au
Average spatial batch extension              ...   2.23,  2.36,  2.52 au

Final grid set up in    1.2 sec
Final integration                            ... done (   1.5 sec)
Change in XC energy                          ...     0.000621289
Integrated number of electrons               ...    87.999904269
Previous integrated no of electrons          ...    88.005923182

----------------
TOTAL SCF ENERGY
----------------

Total Energy       :         -589.97259290 Eh          -16053.97042 eV

Components:
Nuclear Repulsion  :          694.63339102 Eh           18901.93553 eV
Electronic Energy  :        -1284.60598393 Eh          -34955.90595 eV
One Electron Energy:        -2180.08077846 Eh          -59323.01391 eV
Two Electron Energy:          895.47479454 Eh           24367.10796 eV

Virial components:
Potential Energy   :        -1174.82020071 Eh          -31968.48291 eV
Kinetic Energy     :          584.84760781 Eh           15914.51249 eV
Virial Ratio       :            2.00876294


DFT components:
N(Alpha)           :       43.999952134706 electrons
N(Beta)            :       43.999952134706 electrons
N(Total)           :       87.999904269411 electrons
E(XC)              :      -54.926950482086 Eh       
DFET-embed. en.    :        0.000000000000 Eh       

---------------
SCF CONVERGENCE
---------------

  Last Energy change         ...   -2.6840e-09  Tolerance :   1.0000e-08
  Last MAX-Density change    ...    5.1693e-06  Tolerance :   1.0000e-07
  Last RMS-Density change    ...    1.3159e-07  Tolerance :   5.0000e-09
  Last Orbital Gradient      ...    1.3799e-06  Tolerance :   1.0000e-05
  Last Orbital Rotation      ...    3.7777e-06  Tolerance :   1.0000e-05

             **** THE GBW FILE WAS UPDATED (012616689.gbw) ****
             **** DENSITY FILE WAS UPDATED (012616689.scfp) ****
             **** ENERGY FILE WAS UPDATED (012616689.en.tmp) ****
             **** THE GBW FILE WAS UPDATED (012616689.gbw) ****
             **** DENSITY FILE WAS UPDATED (012616689.scfp) ****
----------------
ORBITAL ENERGIES
----------------

  NO   OCC          E(Eh)            E(eV) 
   0   2.0000     -19.272583      -524.4336 
   1   2.0000     -19.269816      -524.3584 
   2   2.0000     -19.251143      -523.8502 
   3   2.0000     -14.675090      -399.3295 
   4   2.0000     -10.353848      -281.7425 
   5   2.0000     -10.348825      -281.6058 
   6   2.0000     -10.337261      -281.2912 
   7   2.0000     -10.333493      -281.1886 
   8   2.0000     -10.318870      -280.7907 
   9   2.0000     -10.316969      -280.7390 
  10   2.0000     -10.311934      -280.6020 
  11   2.0000     -10.306829      -280.4631 
  12   2.0000      -1.355728       -36.8912 
  13   2.0000      -1.172108       -31.8947 
  14   2.0000      -1.154848       -31.4250 
  15   2.0000      -1.013776       -27.5862 
  16   2.0000      -0.929841       -25.3022 
  17   2.0000      -0.906808       -24.6755 
  18   2.0000      -0.839900       -22.8548 
  19   2.0000      -0.807275       -21.9671 
  20   2.0000      -0.769425       -20.9371 
  21   2.0000      -0.717570       -19.5261 
  22   2.0000      -0.703486       -19.1428 
  23   2.0000      -0.662230       -18.0202 
  24   2.0000      -0.660699       -17.9785 
  25   2.0000      -0.621520       -16.9124 
  26   2.0000      -0.616438       -16.7741 
  27   2.0000      -0.603636       -16.4258 
  28   2.0000      -0.593482       -16.1495 
  29   2.0000      -0.576030       -15.6746 
  30   2.0000      -0.559481       -15.2243 
  31   2.0000      -0.549881       -14.9630 
  32   2.0000      -0.521518       -14.1912 
  33   2.0000      -0.509839       -13.8734 
  34   2.0000      -0.486629       -13.2419 
  35   2.0000      -0.481115       -13.0918 
  36   2.0000      -0.461126       -12.5479 
  37   2.0000      -0.432490       -11.7687 
  38   2.0000      -0.410156       -11.1609 
  39   2.0000      -0.408844       -11.1252 
  40   2.0000      -0.392128       -10.6703 
  41   2.0000      -0.375021       -10.2048 
  42   2.0000      -0.365405        -9.9432 
  43   2.0000      -0.351981        -9.5779 
  44   0.0000      -0.015897        -0.4326 
  45   0.0000       0.050640         1.3780 
  46   0.0000       0.081775         2.2252 
  47   0.0000       0.142782         3.8853 
  48   0.0000       0.149084         4.0568 
  49   0.0000       0.186084         5.0636 
  50   0.0000       0.199373         5.4252 
  51   0.0000       0.200887         5.4664 
  52   0.0000       0.204869         5.5748 
  53   0.0000       0.221303         6.0219 
  54   0.0000       0.233660         6.3582 
  55   0.0000       0.234466         6.3802 
  56   0.0000       0.255988         6.9658 
  57   0.0000       0.269797         7.3416 
  58   0.0000       0.275438         7.4950 
  59   0.0000       0.310842         8.4584 
  60   0.0000       0.337067         9.1720 
  61   0.0000       0.348373         9.4797 
  62   0.0000       0.364935         9.9304 
  63   0.0000       0.371656        10.1133 
  64   0.0000       0.384308        10.4576 
  65   0.0000       0.411875        11.2077 
  66   0.0000       0.425774        11.5859 
  67   0.0000       0.458152        12.4670 
  68   0.0000       0.484443        13.1824 
  69   0.0000       0.502675        13.6785 
  70   0.0000       0.505384        13.7522 
  71   0.0000       0.538285        14.6475 
  72   0.0000       0.552992        15.0477 
  73   0.0000       0.554793        15.0967 
  74   0.0000       0.557006        15.1569 
  75   0.0000       0.566910        15.4264 
  76   0.0000       0.587600        15.9894 
  77   0.0000       0.596908        16.2427 
  78   0.0000       0.603928        16.4337 
  79   0.0000       0.614055        16.7093 
  80   0.0000       0.625475        17.0200 
  81   0.0000       0.669816        18.2266 
  82   0.0000       0.675696        18.3866 
  83   0.0000       0.683072        18.5873 
  84   0.0000       0.713682        19.4203 
  85   0.0000       0.717895        19.5349 
  86   0.0000       0.725563        19.7436 
  87   0.0000       0.736493        20.0410 
  88   0.0000       0.745094        20.2750 
  89   0.0000       0.747229        20.3331 
  90   0.0000       0.754081        20.5196 
  91   0.0000       0.758940        20.6518 
  92   0.0000       0.768046        20.8996 
  93   0.0000       0.783863        21.3300 
  94   0.0000       0.793377        21.5889 
  95   0.0000       0.798782        21.7360 
  96   0.0000       0.802778        21.8447 
  97   0.0000       0.816037        22.2055 
  98   0.0000       0.825654        22.4672 
  99   0.0000       0.852804        23.2060 
 100   0.0000       0.867200        23.5977 
 101   0.0000       0.905298        24.6344 
 102   0.0000       0.914071        24.8731 
 103   0.0000       0.930752        25.3270 
 104   0.0000       0.982784        26.7429 
 105   0.0000       0.987240        26.8642 
 106   0.0000       1.011488        27.5240 
 107   0.0000       1.038077        28.2475 
 108   0.0000       1.064134        28.9566 
 109   0.0000       1.091400        29.6985 
 110   0.0000       1.123163        30.5628 
 111   0.0000       1.135758        30.9056 
 112   0.0000       1.153796        31.3964 
 113   0.0000       1.160308        31.5736 
 114   0.0000       1.210644        32.9433 
 115   0.0000       1.226279        33.3687 
 116   0.0000       1.262007        34.3409 
 117   0.0000       1.275961        34.7207 
 118   0.0000       1.288108        35.0512 
 119   0.0000       1.307042        35.5664 
 120   0.0000       1.322025        35.9741 
 121   0.0000       1.342549        36.5326 
 122   0.0000       1.373024        37.3619 
 123   0.0000       1.379507        37.5383 
 124   0.0000       1.410397        38.3789 
 125   0.0000       1.421968        38.6937 
 126   0.0000       1.434769        39.0421 
 127   0.0000       1.453267        39.5454 
 128   0.0000       1.492554        40.6145 
 129   0.0000       1.562292        42.5121 
 130   0.0000       1.592399        43.3314 
 131   0.0000       1.613750        43.9124 
 132   0.0000       1.614607        43.9357 
 133   0.0000       1.625028        44.2192 
 134   0.0000       1.658512        45.1304 
 135   0.0000       1.713741        46.6333 
 136   0.0000       1.734934        47.2100 
 137   0.0000       1.763870        47.9974 
 138   0.0000       1.771941        48.2170 
 139   0.0000       1.794035        48.8182 
 140   0.0000       1.807225        49.1771 
 141   0.0000       1.825192        49.6660 
 142   0.0000       1.830149        49.8009 
 143   0.0000       1.842035        50.1243 
 144   0.0000       1.851347        50.3777 
 145   0.0000       1.860403        50.6241 
 146   0.0000       1.862818        50.6899 
 147   0.0000       1.880021        51.1580 
 148   0.0000       1.896885        51.6169 
 149   0.0000       1.910382        51.9841 
 150   0.0000       1.912946        52.0539 
 151   0.0000       1.938696        52.7546 
 152   0.0000       1.986090        54.0442 
 153   0.0000       2.000246        54.4295 
 154   0.0000       2.012335        54.7584 
 155   0.0000       2.023852        55.0718 
 156   0.0000       2.035535        55.3897 
 157   0.0000       2.050996        55.8104 
 158   0.0000       2.090527        56.8861 
 159   0.0000       2.120971        57.7145 
 160   0.0000       2.132120        58.0179 
 161   0.0000       2.193388        59.6851 
 162   0.0000       2.209035        60.1109 
 163   0.0000       2.229980        60.6808 
 164   0.0000       2.238484        60.9123 
 165   0.0000       2.245942        61.1152 
 166   0.0000       2.275167        61.9104 
 167   0.0000       2.304719        62.7146 
 168   0.0000       2.359673        64.2100 
 169   0.0000       2.383443        64.8568 
 170   0.0000       2.392465        65.1023 
 171   0.0000       2.417261        65.7770 
 172   0.0000       2.420219        65.8575 
 173   0.0000       2.433320        66.2140 
 174   0.0000       2.448046        66.6147 
 175   0.0000       2.469519        67.1990 
 176   0.0000       2.483187        67.5709 
 177   0.0000       2.486597        67.6637 
 178   0.0000       2.536110        69.0111 
 179   0.0000       2.584379        70.3245 
 180   0.0000       2.636351        71.7388 
 181   0.0000       2.666407        72.5566 
 182   0.0000       2.702135        73.5288 
 183   0.0000       2.721627        74.0592 
 184   0.0000       2.725689        74.1698 
 185   0.0000       2.753176        74.9177 
 186   0.0000       2.769189        75.3535 
 187   0.0000       2.794940        76.0542 
 188   0.0000       2.809282        76.4445 
 189   0.0000       2.828347        76.9632 
 190   0.0000       2.837725        77.2184 
 191   0.0000       2.882264        78.4304 
 192   0.0000       2.896815        78.8264 
 193   0.0000       2.911835        79.2351 
 194   0.0000       2.939993        80.0013 
 195   0.0000       2.966249        80.7157 
 196   0.0000       2.990228        81.3682 
 197   0.0000       3.004542        81.7577 
 198   0.0000       3.047086        82.9154 
 199   0.0000       3.116414        84.8019 
 200   0.0000       3.163068        86.0715 
 201   0.0000       3.169005        86.2330 
 202   0.0000       3.211674        87.3941 
 203   0.0000       3.216103        87.5146 
 204   0.0000       3.277473        89.1846 
 205   0.0000       3.387469        92.1777 
 206   0.0000       3.398868        92.4879 
 207   0.0000       3.428824        93.3030 
 208   0.0000       3.519890        95.7811 
 209   0.0000       3.644394        99.1690 
 210   0.0000       3.721180       101.2584 
 211   0.0000       3.883213       105.6676 
 212   0.0000       3.896855       106.0388 

                    ********************************
                    * MULLIKEN POPULATION ANALYSIS *
                    ********************************

-----------------------
MULLIKEN ATOMIC CHARGES
-----------------------
   0 C :    0.161219
   1 H :    0.045115
   2 O :   -0.420230
   3 C :    0.317565
   4 C :   -0.159495
   5 C :   -0.036256
   6 C :    0.034917
   7 C :   -0.000877
   8 C :   -0.030557
   9 C :    0.109058
  10 N :    0.250456
  11 O :   -0.256500
  12 O :   -0.246802
  13 H :    0.039506
  14 H :    0.025736
  15 H :    0.027989
  16 H :    0.031349
  17 H :    0.036350
  18 H :    0.030568
  19 H :    0.020049
  20 H :    0.020841
Sum of atomic charges:    0.0000000

--------------------------------
MULLIKEN REDUCED ORBITAL CHARGES
--------------------------------
  0 C s       :     3.009639  s :     3.009639
      pz      :     1.024533  p :     2.773761
      px      :     0.817485
      py      :     0.931743
      dz2     :     0.008495  d :     0.055381
      dxz     :     0.007129
      dyz     :     0.013189
      dx2y2   :     0.009468
      dxy     :     0.017100
  1 H s       :     0.932599  s :     0.932599
      pz      :     0.005204  p :     0.022286
      px      :     0.008965
      py      :     0.008116
  2 O s       :     3.765592  s :     3.765592
      pz      :     1.878908  p :     4.638292
      px      :     1.194906
      py      :     1.564478
      dz2     :     0.002353  d :     0.016346
      dxz     :     0.001966
      dyz     :     0.001878
      dx2y2   :     0.002627
      dxy     :     0.007523
  3 C s       :     2.882707  s :     2.882707
      pz      :     1.038235  p :     2.736941
      px      :     0.795351
      py      :     0.903355
      dz2     :     0.009203  d :     0.062787
      dxz     :     0.009658
      dyz     :     0.013355
      dx2y2   :     0.011712
      dxy     :     0.018858
  4 C s       :     3.101520  s :     3.101520
      pz      :     0.946901  p :     3.016021
      px      :     1.077995
      py      :     0.991126
      dz2     :     0.003101  d :     0.041953
      dxz     :     0.007084
      dyz     :     0.007603
      dx2y2   :     0.010890
      dxy     :     0.013276
  5 C s       :     3.239412  s :     3.239412
      pz      :     0.975080  p :     2.762366
      px      :     0.842273
      py      :     0.945012
      dz2     :     0.002571  d :     0.034478
      dxz     :     0.003244
      dyz     :     0.005486
      dx2y2   :     0.012251
      dxy     :     0.010926
  6 C s       :     3.143350  s :     3.143350
      pz      :     0.941166  p :     2.785248
      px      :     0.960061
      py      :     0.884021
      dz2     :     0.002500  d :     0.036486
      dxz     :     0.007037
      dyz     :     0.002791
      dx2y2   :     0.013194
      dxy     :     0.010963
  7 C s       :     3.144034  s :     3.144034
      pz      :     0.992687  p :     2.821318
      px      :     0.902902
      py      :     0.925729
      dz2     :     0.002496  d :     0.035525
      dxz     :     0.004024
      dyz     :     0.004971
      dx2y2   :     0.011122
      dxy     :     0.012911
  8 C s       :     3.251149  s :     3.251149
      pz      :     0.932640  p :     2.744395
      px      :     0.900807
      py      :     0.910947
      dz2     :     0.002621  d :     0.035013
      dxz     :     0.003445
      dyz     :     0.007099
      dx2y2   :     0.008923
      dxy     :     0.012924
  9 C s       :     3.026378  s :     3.026378
      pz      :     1.102185  p :     2.815798
      px      :     0.930560
      py      :     0.783053
      dz2     :     0.004241  d :     0.048766
      dxz     :     0.007589
      dyz     :     0.004626
      dx2y2   :     0.019681
      dxy     :     0.012629
 10 N s       :     3.290579  s :     3.290579
      pz      :     1.156047  p :     3.335872
      px      :     1.040885
      py      :     1.138940
      dz2     :     0.005868  d :     0.123093
      dxz     :     0.028261
      dyz     :     0.009444
      dx2y2   :     0.042895
      dxy     :     0.036625
 11 O s       :     3.862799  s :     3.862799
      pz      :     1.428092  p :     4.370923
      px      :     1.405805
      py      :     1.537026
      dz2     :     0.002798  d :     0.022778
      dxz     :     0.003824
      dyz     :     0.003339
      dx2y2   :     0.004439
      dxy     :     0.008378
 12 O s       :     3.855701  s :     3.855701
      pz      :     1.422118  p :     4.368007
      px      :     1.159140
      py      :     1.786749
      dz2     :     0.002825  d :     0.023094
      dxz     :     0.006551
      dyz     :     0.000739
      dx2y2   :     0.007499
      dxy     :     0.005478
 13 H s       :     0.936158  s :     0.936158
      pz      :     0.004139  p :     0.024336
      px      :     0.013994
      py      :     0.006203
 14 H s       :     0.950586  s :     0.950586
      pz      :     0.004619  p :     0.023678
      px      :     0.010877
      py      :     0.008181
 15 H s       :     0.948904  s :     0.948904
      pz      :     0.004255  p :     0.023106
      px      :     0.003605
      py      :     0.015246
 16 H s       :     0.944114  s :     0.944114
      pz      :     0.004361  p :     0.024537
      px      :     0.015611
      py      :     0.004566
 17 H s       :     0.941626  s :     0.941626
      pz      :     0.011753  p :     0.022025
      px      :     0.002502
      py      :     0.007769
 18 H s       :     0.947011  s :     0.947011
      pz      :     0.010797  p :     0.022422
      px      :     0.002552
      py      :     0.009072
 19 H s       :     0.957065  s :     0.957065
      pz      :     0.011343  p :     0.022887
      px      :     0.002967
      py      :     0.008577
 20 H s       :     0.956618  s :     0.956618
      pz      :     0.012068  p :     0.022541
      px      :     0.003076
      py      :     0.007397


                     *******************************
                     * LOEWDIN POPULATION ANALYSIS *
                     *******************************

----------------------
LOEWDIN ATOMIC CHARGES
----------------------
   0 C :    0.069794
   1 H :    0.024741
   2 O :   -0.179066
   3 C :    0.072003
   4 C :   -0.007846
   5 C :   -0.016811
   6 C :    0.004411
   7 C :   -0.028653
   8 C :    0.001244
   9 C :   -0.042303
  10 N :    0.287688
  11 O :   -0.202286
  12 O :   -0.204807
  13 H :    0.043592
  14 H :    0.036015
  15 H :    0.036943
  16 H :    0.038739
  17 H :    0.025067
  18 H :    0.022022
  19 H :    0.009461
  20 H :    0.010054

-------------------------------
LOEWDIN REDUCED ORBITAL CHARGES
-------------------------------
  0 C s       :     2.839856  s :     2.839856
      pz      :     1.074945  p :     2.961951
      px      :     0.885140
      py      :     1.001866
      dz2     :     0.019976  d :     0.128400
      dxz     :     0.014017
      dyz     :     0.034690
      dx2y2   :     0.019492
      dxy     :     0.040224
  1 H s       :     0.911366  s :     0.911366
      pz      :     0.012877  p :     0.063893
      px      :     0.027907
      py      :     0.023108
  2 O s       :     3.450993  s :     3.450993
      pz      :     1.864123  p :     4.698699
      px      :     1.234831
      py      :     1.599745
      dz2     :     0.003821  d :     0.029374
      dxz     :     0.003709
      dyz     :     0.002258
      dx2y2   :     0.005395
      dxy     :     0.014191
  3 C s       :     2.831115  s :     2.831115
      pz      :     1.081542  p :     2.950060
      px      :     0.884045
      py      :     0.984473
      dz2     :     0.021925  d :     0.146822
      dxz     :     0.018437
      dyz     :     0.035347
      dx2y2   :     0.025593
      dxy     :     0.045520
  4 C s       :     2.853968  s :     2.853968
      pz      :     0.921253  p :     3.048724
      px      :     1.049614
      py      :     1.077857
      dz2     :     0.007357  d :     0.105154
      dxz     :     0.013600
      dyz     :     0.014098
      dx2y2   :     0.032483
      dxy     :     0.037615
  5 C s       :     2.847818  s :     2.847818
      pz      :     0.965934  p :     3.077795
      px      :     1.062321
      py      :     1.049540
      dz2     :     0.006200  d :     0.091198
      dxz     :     0.005658
      dyz     :     0.011445
      dx2y2   :     0.035643
      dxy     :     0.032252
  6 C s       :     2.853777  s :     2.853777
      pz      :     0.922017  p :     3.047561
      px      :     1.074451
      py      :     1.051092
      dz2     :     0.006119  d :     0.094251
      dxz     :     0.014592
      dyz     :     0.004597
      dx2y2   :     0.037314
      dxy     :     0.031629
  7 C s       :     2.848799  s :     2.848799
      pz      :     0.972440  p :     3.086723
      px      :     1.055210
      py      :     1.059073
      dz2     :     0.006225  d :     0.093131
      dxz     :     0.007638
      dyz     :     0.009842
      dx2y2   :     0.032450
      dxy     :     0.036977
  8 C s       :     2.855574  s :     2.855574
      pz      :     0.927439  p :     3.051429
      px      :     1.053018
      py      :     1.070972
      dz2     :     0.006308  d :     0.091754
      dxz     :     0.006400
      dyz     :     0.014673
      dx2y2   :     0.027583
      dxy     :     0.036790
  9 C s       :     2.849779  s :     2.849779
      pz      :     1.072776  p :     3.066739
      px      :     1.085187
      py      :     0.908776
      dz2     :     0.010064  d :     0.125785
      dxz     :     0.015146
      dyz     :     0.009569
      dx2y2   :     0.052547
      dxy     :     0.038459
 10 N s       :     3.037747  s :     3.037747
      pz      :     1.107339  p :     3.420440
      px      :     1.132491
      py      :     1.180610
      dz2     :     0.013406  d :     0.254125
      dxz     :     0.049327
      dyz     :     0.016016
      dx2y2   :     0.094310
      dxy     :     0.081065
 11 O s       :     3.607152  s :     3.607152
      pz      :     1.440004  p :     4.551763
      px      :     1.503709
      py      :     1.608051
      dz2     :     0.006473  d :     0.043371
      dxz     :     0.005648
      dyz     :     0.004514
      dx2y2   :     0.007123
      dxy     :     0.019612
 12 O s       :     3.609139  s :     3.609139
      pz      :     1.433783  p :     4.551762
      px      :     1.323882
      py      :     1.794096
      dz2     :     0.006486  d :     0.043906
      dxz     :     0.009397
      dyz     :     0.000950
      dx2y2   :     0.016153
      dxy     :     0.010920
 13 H s       :     0.881710  s :     0.881710
      pz      :     0.013317  p :     0.074697
      px      :     0.041317
      py      :     0.020063
 14 H s       :     0.894435  s :     0.894435
      pz      :     0.014623  p :     0.069551
      px      :     0.031306
      py      :     0.023622
 15 H s       :     0.894219  s :     0.894219
      pz      :     0.013433  p :     0.068839
      px      :     0.012638
      py      :     0.042767
 16 H s       :     0.886759  s :     0.886759
      pz      :     0.014363  p :     0.074502
      px      :     0.045026
      py      :     0.015114
 17 H s       :     0.907882  s :     0.907882
      pz      :     0.034286  p :     0.067051
      px      :     0.010062
      py      :     0.022704
 18 H s       :     0.910686  s :     0.910686
      pz      :     0.030300  p :     0.067292
      px      :     0.010450
      py      :     0.026541
 19 H s       :     0.925811  s :     0.925811
      pz      :     0.031153  p :     0.064729
      px      :     0.009488
      py      :     0.024087
 20 H s       :     0.925328  s :     0.925328
      pz      :     0.034103  p :     0.064618
      px      :     0.009812
      py      :     0.020703


                      *****************************
                      * MAYER POPULATION ANALYSIS *
                      *****************************

  NA   - Mulliken gross atomic population
  ZA   - Total nuclear charge
  QA   - Mulliken gross atomic charge
  VA   - Mayer's total valence
  BVA  - Mayer's bonded valence
  FA   - Mayer's free valence

  ATOM       NA         ZA         QA         VA         BVA        FA
  0 C      5.8388     6.0000     0.1612     3.9307     3.9307     0.0000
  1 H      0.9549     1.0000     0.0451     0.9910     0.9910     0.0000
  2 O      8.4202     8.0000    -0.4202     2.0656     2.0656     0.0000
  3 C      5.6824     6.0000     0.3176     3.9076     3.9076    -0.0000
  4 C      6.1595     6.0000    -0.1595     3.9579     3.9579     0.0000
  5 C      6.0363     6.0000    -0.0363     3.9103     3.9103     0.0000
  6 C      5.9651     6.0000     0.0349     3.7935     3.7935     0.0000
  7 C      6.0009     6.0000    -0.0009     3.8129     3.8129     0.0000
  8 C      6.0306     6.0000    -0.0306     3.8866     3.8866    -0.0000
  9 C      5.8909     6.0000     0.1091     3.8841     3.8841    -0.0000
 10 N      6.7495     7.0000     0.2505     3.9796     3.9796     0.0000
 11 O      8.2565     8.0000    -0.2565     1.9360     1.9360     0.0000
 12 O      8.2468     8.0000    -0.2468     1.9514     1.9514    -0.0000
 13 H      0.9605     1.0000     0.0395     1.0224     1.0224    -0.0000
 14 H      0.9743     1.0000     0.0257     0.9867     0.9867     0.0000
 15 H      0.9720     1.0000     0.0280     0.9851     0.9851    -0.0000
 16 H      0.9687     1.0000     0.0313     1.0232     1.0232     0.0000
 17 H      0.9637     1.0000     0.0363     1.0035     1.0035     0.0000
 18 H      0.9694     1.0000     0.0306     1.0048     1.0048     0.0000
 19 H      0.9800     1.0000     0.0200     0.9888     0.9888    -0.0000
 20 H      0.9792     1.0000     0.0208     0.9887     0.9887    -0.0000

  Mayer bond orders larger than 0.100000
B(  0-C ,  1-H ) :   0.9840 B(  0-C ,  2-O ) :   0.9696 B(  0-C , 19-H ) :   0.9699 
B(  0-C , 20-H ) :   0.9697 B(  2-O ,  3-C ) :   1.0096 B(  3-C ,  4-C ) :   1.0109 
B(  3-C , 17-H ) :   0.9193 B(  3-C , 18-H ) :   0.9224 B(  4-C ,  5-C ) :   1.4169 
B(  4-C ,  9-C ) :   1.3963 B(  5-C ,  6-C ) :   1.3740 B(  5-C , 16-H ) :   0.9909 
B(  6-C ,  7-C ) :   1.3591 B(  6-C , 15-H ) :   0.9954 B(  7-C ,  8-C ) :   1.3876 
B(  7-C , 14-H ) :   0.9928 B(  8-C ,  9-C ) :   1.3871 B(  8-C , 13-H ) :   0.9837 
B(  9-C , 10-N ) :   0.8823 B( 10-N , 11-O ) :   1.5121 B( 10-N , 12-O ) :   1.5577 
B( 11-O , 12-O ) :   0.2620 

-------
TIMINGS
-------

Total SCF time: 0 days 0 hours 2 min 20 sec 

Total time                  ....     140.816 sec
Sum of individual times     ....     140.585 sec  ( 99.8%)

Fock matrix formation       ....     138.427 sec  ( 98.3%)
  XC integration            ....       6.994 sec  (  5.1% of F)
    Basis function eval.    ....       2.011 sec  ( 28.8% of XC)
    Density eval.           ....       1.238 sec  ( 17.7% of XC)
    XC-Functional eval.     ....       1.789 sec  ( 25.6% of XC)
    XC-Potential eval.      ....       1.767 sec  ( 25.3% of XC)
Diagonalization             ....       0.038 sec  (  0.0%)
Density matrix formation    ....       0.011 sec  (  0.0%)
Population analysis         ....       0.006 sec  (  0.0%)
Initial guess               ....       0.543 sec  (  0.4%)
Orbital Transformation      ....       0.000 sec  (  0.0%)
Orbital Orthonormalization  ....       0.000 sec  (  0.0%)
DIIS solution               ....       0.012 sec  (  0.0%)
SOSCF solution              ....       0.031 sec  (  0.0%)
Grid generation             ....       1.516 sec  (  1.1%)


-------------------------------------------------------------------------------
                          DFT DISPERSION CORRECTION                            
                                                                               
                              DFTD3 V3.1  Rev 1                                
                              USING zero damping                               
-------------------------------------------------------------------------------
The omegaB97X-D3 functional is recognized. Fit by Chai et al.
Active option DFTDOPT                   ...         3   

molecular C6(AA) [au] = 4685.896294 


            DFT-D V3
 parameters
 s6 scaling factor         :     1.0000 
 rs6 scaling factor        :     1.2810 
 s8 scaling factor         :     1.0000 
 rs8 scaling factor        :     1.0940 
 Damping factor alpha6     :    14.0000 
 Damping factor alpha8     :    16.0000 
 ad hoc parameters k1-k3   :    16.0000     1.3333    -4.0000 

 Edisp/kcal,au: -4.250106713862  -0.006772975447 
 E6   /kcal   :  -1.891731883 
 E8   /kcal   :  -2.358374831 
 % E8         :  55.489779199 

-------------------------   ----------------
Dispersion correction           -0.006772975
-------------------------   ----------------


-------------------------   --------------------
FINAL SINGLE POINT ENERGY      -589.979365878383
-------------------------   --------------------

------------------------------------------------------------------------------
                         ORCA SCF GRADIENT CALCULATION
------------------------------------------------------------------------------

Gradient of the Kohn-Sham DFT energy:
Kohn-Sham wavefunction type      ... RKS
Hartree-Fock exchange scaling    ...    0.196
Number of operators              ...    1
Number of atoms                  ...   21
Basis set dimensions             ...  213
Integral neglect threshold       ... 2.5e-11
Integral primitive cutoff        ... 2.5e-12

Nuclear repulsion gradient       ... done
One Electron Gradient            ... done
Pre-screening matrix             ... done
Starting the two electron gradient:
Two electron gradient done
Exchange-correlation gradient    ... done
Dispersion correction            ... done

------------------
CARTESIAN GRADIENT
------------------

   1   C   :   -0.010747408    0.008243116   -0.000050781
   2   H   :    0.006780261    0.002276429    0.000333163
   3   O   :   -0.005705771   -0.003885030   -0.000378182
   4   C   :    0.014467563    0.003290247    0.000503447
   5   C   :    0.001448866   -0.006600828    0.000346935
   6   C   :   -0.001288851   -0.000800434   -0.000027144
   7   C   :   -0.001897316   -0.002131637   -0.000034632
   8   C   :    0.003280969    0.000241021   -0.000105730
   9   C   :    0.000366272   -0.004384917   -0.000292197
  10   C   :    0.001330702    0.021803393   -0.000282785
  11   N   :   -0.008337767   -0.019766371    0.000710704
  12   O   :   -0.001018872    0.001177954   -0.000100171
  13   O   :    0.003521585   -0.001119679   -0.000372685
  14   H   :   -0.006572483   -0.003125020    0.000279342
  15   H   :   -0.007745707    0.005519518    0.000033215
  16   H   :    0.001819405    0.009551995   -0.000009506
  17   H   :    0.008922587    0.002449439    0.000059926
  18   H   :   -0.000672772   -0.002521188   -0.001158179
  19   H   :   -0.000779811   -0.002377567    0.000839332
  20   H   :    0.001228384   -0.004171240    0.004654368
  21   H   :    0.001600164   -0.003669202   -0.004948441

Difference to translation invariance:
           :    0.0000000000    0.0000000000   -0.0000000000

Norm of the cartesian gradient     ...    0.0443113277
RMS gradient                       ...    0.0055827025
MAX gradient                       ...    0.0218033934

-------
TIMINGS
-------

Total SCF gradient time            ...       50.945 sec

One electron gradient       ....       0.182 sec  (  0.4%)
Prescreening matrices       ....       0.111 sec  (  0.2%)
Two electron gradient       ....      45.250 sec  ( 88.8%)
XC gradient                 ....       5.254 sec  ( 10.3%)
------------------------------------------------------------------------------
                         ORCA GEOMETRY RELAXATION STEP
------------------------------------------------------------------------------

Reading the OPT-File                    .... done
Getting information on internals        .... done
Copying old internal coords+grads       .... done
Making the new internal coordinates     .... (new redundants).... done
Validating the new internal coordinates .... (new redundants).... done
Calculating the B-matrix                .... done
Calculating the G,G- and P matrices     .... done
Transforming gradient to internals      .... done
Projecting the internal gradient        .... done
Number of atoms                         ....  21
Number of internal coordinates          ....  95
Current Energy                          ....  -589.979365878 Eh
Current gradient norm                   ....     0.044311328 Eh/bohr
Maximum allowed component of the step   ....  0.300
Current trust radius                    ....  0.300
Evaluating the initial hessian          ....  (Almloef) done
Projecting the Hessian                  .... done
Forming the augmented Hessian           .... done
Diagonalizing the augmented Hessian     .... done
Last element of RFO vector              ....  0.995839127
Lowest eigenvalues of augmented Hessian:
 -0.003297705  0.012858493  0.017386619  0.017394225  0.020405706
Length of the computed step             ....  0.091509425
The final length of the internal step   ....  0.091509425
Converting the step to cartesian space:
 Initial RMS(Int)=    0.0093886689
Transforming coordinates:
 Iter   0:  RMS(Cart)=    0.0316497086 RMS(Int)=    1.1161677965
 Iter   1:  RMS(Cart)=    0.0002958720 RMS(Int)=    0.0001422499
 Iter   2:  RMS(Cart)=    0.0000045259 RMS(Int)=    0.0000022545
 Iter   3:  RMS(Cart)=    0.0000001067 RMS(Int)=    0.0000000627
 Iter   4:  RMS(Cart)=    0.0000000019 RMS(Int)=    0.0000000015
done
Storing new coordinates                 .... done

                                .--------------------.
          ----------------------|Geometry convergence|-------------------------
          Item                value                   Tolerance       Converged
          ---------------------------------------------------------------------
          RMS gradient        0.0039312130            0.0001000000      NO
          MAX gradient        0.0205013495            0.0003000000      NO
          RMS step            0.0093886689            0.0020000000      NO
          MAX step            0.0433473424            0.0040000000      NO
          ........................................................
          Max(Bonds)      0.0229      Max(Angles)    0.97
          Max(Dihed)        0.80      Max(Improp)    0.00
          ---------------------------------------------------------------------

The optimization has not yet converged - more geometry cycles are needed


    ---------------------------------------------------------------------------
                         Redundant Internal Coordinates
                            (Angstroem and degrees)

        Definition                    Value    dE/dq     Step     New-Value
    ----------------------------------------------------------------------------
     1. B(H   1,C   0)                1.0880 -0.006711  0.0097    1.0977   
     2. B(O   2,C   0)                1.4043  0.002459 -0.0024    1.4018   
     3. B(C   3,O   2)                1.4081  0.006383 -0.0064    1.4017   
     4. B(C   4,C   3)                1.5002 -0.006635  0.0084    1.5085   
     5. B(C   5,C   4)                1.3917 -0.006838  0.0058    1.3975   
     6. B(C   6,C   5)                1.3819 -0.008315  0.0069    1.3888   
     7. B(C   7,C   6)                1.3877 -0.006873  0.0058    1.3935   
     8. B(C   8,C   7)                1.3776 -0.008266  0.0067    1.3842   
     9. B(C   9,C   8)                1.3949 -0.003616  0.0030    1.3979   
    10. B(C   9,C   4)                1.4020 -0.007228  0.0063    1.4083   
    11. B(N  10,C   9)                1.4377 -0.020501  0.0229    1.4606   
    12. B(O  11,N  10)                1.2161  0.001516 -0.0008    1.2152   
    13. B(O  12,N  10)                1.2140  0.003112 -0.0017    1.2123   
    14. B(H  13,C   8)                1.0795 -0.007275  0.0102    1.0897   
    15. B(H  14,C   7)                1.0787 -0.009499  0.0133    1.0920   
    16. B(H  15,C   6)                1.0794 -0.009717  0.0136    1.0930   
    17. B(H  16,C   5)                1.0774 -0.009210  0.0128    1.0902   
    18. B(H  17,C   3)                1.1026 -0.002352  0.0036    1.1061   
    19. B(H  18,C   3)                1.1024 -0.002205  0.0034    1.1057   
    20. B(H  19,C   0)                1.0968 -0.006256  0.0093    1.1061   
    21. B(H  20,C   0)                1.0968 -0.006239  0.0093    1.1061   
    22. A(H  19,C   0,H  20)          108.64  0.001241   -0.24    108.40   
    23. A(H   1,C   0,H  20)          109.53  0.001930   -0.34    109.19   
    24. A(H   1,C   0,O   2)          106.53 -0.003203    0.56    107.10   
    25. A(O   2,C   0,H  19)          111.31 -0.000850    0.16    111.46   
    26. A(H   1,C   0,H  19)          109.51  0.001897   -0.33    109.18   
    27. A(O   2,C   0,H  20)          111.30 -0.000972    0.18    111.48   
    28. A(C   0,O   2,C   3)          112.42 -0.001785    0.25    112.67   
    29. A(C   4,C   3,H  18)          109.89 -0.001344    0.17    110.06   
    30. A(C   4,C   3,H  17)          109.49 -0.001449    0.19    109.68   
    31. A(O   2,C   3,H  17)          110.19 -0.002420    0.41    110.59   
    32. A(O   2,C   3,H  18)          110.15 -0.002579    0.44    110.59   
    33. A(O   2,C   3,C   4)          110.61  0.006110   -0.94    109.67   
    34. A(H  17,C   3,H  18)          106.43  0.001445   -0.23    106.20   
    35. A(C   5,C   4,C   9)          117.50  0.002314   -0.32    117.18   
    36. A(C   3,C   4,C   5)          119.13  0.004569   -0.65    118.48   
    37. A(C   3,C   4,C   9)          123.37 -0.006883    0.97    124.34   
    38. A(C   6,C   5,H  16)          120.63 -0.000620    0.10    120.73   
    39. A(C   4,C   5,C   6)          121.61 -0.000516    0.08    121.69   
    40. A(C   4,C   5,H  16)          117.76  0.001136   -0.18    117.58   
    41. A(C   5,C   6,C   7)          120.32  0.000081    0.01    120.33   
    42. A(C   7,C   6,H  15)          120.03 -0.000345    0.04    120.07   
    43. A(C   5,C   6,H  15)          119.65  0.000263   -0.05    119.60   
    44. A(C   6,C   7,C   8)          119.28  0.000248   -0.02    119.26   
    45. A(C   8,C   7,H  14)          120.12  0.000372   -0.07    120.05   
    46. A(C   6,C   7,H  14)          120.60 -0.000620    0.09    120.69   
    47. A(C   7,C   8,C   9)          120.49  0.001141   -0.17    120.32   
    48. A(C   9,C   8,H  13)          118.25 -0.000252    0.03    118.29   
    49. A(C   7,C   8,H  13)          121.25 -0.000889    0.13    121.39   
    50. A(C   8,C   9,N  10)          116.60  0.001155   -0.14    116.46   
    51. A(C   4,C   9,N  10)          122.60  0.002112   -0.28    122.33   
    52. A(C   4,C   9,C   8)          120.80 -0.003267    0.42    121.22   
    53. A(C   9,N  10,O  12)          117.69 -0.003297    0.42    118.11   
    54. A(C   9,N  10,O  11)          118.63  0.001925   -0.26    118.37   
    55. A(O  11,N  10,O  12)          123.68  0.001372   -0.16    123.52   
    56. D(C   3,O   2,C   0,H  20)    -60.68 -0.000194    0.10    -60.58   
    57. D(C   3,O   2,C   0,H   1)    179.98 -0.000019    0.06    180.04   
    58. D(C   3,O   2,C   0,H  19)     60.66  0.000127    0.03     60.69   
    59. D(H  17,C   3,O   2,C   0)     58.73 -0.000555   -0.02     58.72   
    60. D(C   4,C   3,O   2,C   0)    179.93  0.000042   -0.13    179.80   
    61. D(H  18,C   3,O   2,C   0)    -58.39  0.000681   -0.24    -58.63   
    62. D(C   5,C   4,C   3,O   2)     -3.88 -0.000135    0.38     -3.50   
    63. D(C   9,C   4,C   3,H  17)    -62.57 -0.000150    0.40    -62.17   
    64. D(C   9,C   4,C   3,H  18)     53.99 -0.000020    0.32     54.31   
    65. D(C   5,C   4,C   3,H  17)    117.73 -0.000159    0.40    118.13   
    66. D(C   5,C   4,C   3,H  18)   -125.71 -0.000029    0.33   -125.38   
    67. D(C   9,C   4,C   3,O   2)    175.82 -0.000126    0.37    176.19   
    68. D(H  16,C   5,C   4,C   3)     -0.01 -0.000068    0.10      0.09   
    69. D(C   6,C   5,C   4,C   9)      0.20 -0.000003    0.01      0.21   
    70. D(C   6,C   5,C   4,C   3)    179.92 -0.000023    0.01    179.93   
    71. D(H  16,C   5,C   4,C   9)   -179.73 -0.000048    0.10   -179.62   
    72. D(H  15,C   6,C   5,H  16)     -0.23  0.000023   -0.04     -0.27   
    73. D(H  15,C   6,C   5,C   4)    179.85 -0.000025    0.05    179.90   
    74. D(C   7,C   6,C   5,H  16)    179.80  0.000068   -0.13    179.67   
    75. D(C   7,C   6,C   5,C   4)     -0.12  0.000020   -0.04     -0.16   
    76. D(H  14,C   7,C   6,H  15)     -0.06  0.000008   -0.02     -0.08   
    77. D(H  14,C   7,C   6,C   5)    179.91 -0.000038    0.08    179.99   
    78. D(C   8,C   7,C   6,H  15)    179.96  0.000046   -0.09    179.88   
    79. D(C   8,C   7,C   6,C   5)     -0.06  0.000001    0.00     -0.06   
    80. D(H  13,C   8,C   7,H  14)      0.05 -0.000048    0.08      0.13   
    81. D(H  13,C   8,C   7,C   6)   -179.97 -0.000086    0.15   -179.82   
    82. D(C   9,C   8,C   7,H  14)   -179.82  0.000008   -0.01   -179.83   
    83. D(C   9,C   8,C   7,C   6)      0.16 -0.000031    0.06      0.22   
    84. D(N  10,C   9,C   4,C   3)      0.12 -0.000097    0.18      0.31   
    85. D(C   8,C   9,C   4,C   5)     -0.10 -0.000028    0.05     -0.05   
    86. D(C   8,C   9,C   4,C   3)   -179.80 -0.000044    0.06   -179.74   
    87. D(N  10,C   9,C   8,H  13)      0.12  0.000149   -0.30     -0.18   
    88. D(N  10,C   9,C   8,C   7)    179.99  0.000095   -0.20    179.78   
    89. D(C   4,C   9,C   8,H  13)   -179.95  0.000100   -0.18   -180.13   
    90. D(C   4,C   9,C   8,C   7)     -0.08  0.000046   -0.09     -0.17   
    91. D(N  10,C   9,C   4,C   5)    179.83 -0.000081    0.18    180.01   
    92. D(O  12,N  10,C   9,C   8)      6.80 -0.000120    0.32      7.12   
    93. D(O  12,N  10,C   9,C   4)   -173.13 -0.000066    0.20   -172.93   
    94. D(O  11,N  10,C   9,C   8)   -173.15 -0.000294    0.80   -172.35   
    95. D(O  11,N  10,C   9,C   4)      6.92 -0.000240    0.68      7.60   
    ----------------------------------------------------------------------------

         *************************************************************
         *                GEOMETRY OPTIMIZATION CYCLE   2            *
         *************************************************************
---------------------------------
CARTESIAN COORDINATES (ANGSTROEM)
---------------------------------
  C     -3.879337    0.495862   -0.046325
  H     -4.720543   -0.206718   -0.107491
  O     -2.703651   -0.267611   -0.050769
  C     -1.547289    0.520864    0.025139
  C     -0.326885   -0.365835    0.020468
  C     -0.509776   -1.751323    0.021458
  C      0.566296   -2.629245    0.015828
  C      1.871857   -2.142164    0.005600
  C      2.083662   -0.774253   -0.000139
  C      0.999259    0.107905    0.008923
  N      1.319665    1.532961    0.006875
  O      0.413541    2.328723    0.156782
  O      2.479042    1.857575   -0.134800
  H      3.089699   -0.355773   -0.011085
  H      2.722229   -2.827189    0.001338
  H      0.383810   -3.706899    0.018423
  H     -1.533819   -2.125247    0.024017
  H     -1.556271    1.137278    0.943559
  H     -1.503955    1.230210   -0.821958
  H     -3.917800    1.184802   -0.910838
  H     -3.970933    1.092977    0.880194

----------------------------
CARTESIAN COORDINATES (A.U.)
----------------------------
  NO LB      ZA    FRAG     MASS         X           Y           Z
   0 C     6.0000    0    12.011   -7.330885    0.937044   -0.087541
   1 H     1.0000    0     1.008   -8.920534   -0.390641   -0.203129
   2 O     8.0000    0    15.999   -5.109159   -0.505712   -0.095940
   3 C     6.0000    0    12.011   -2.923952    0.984290    0.047506
   4 C     6.0000    0    12.011   -0.617722   -0.691329    0.038679
   5 C     6.0000    0    12.011   -0.963337   -3.309520    0.040550
   6 C     6.0000    0    12.011    1.070144   -4.968554    0.029910
   7 C     6.0000    0    12.011    3.537296   -4.048104    0.010583
   8 C     6.0000    0    12.011    3.937551   -1.463126   -0.000262
   9 C     6.0000    0    12.011    1.888325    0.203910    0.016863
  10 N     7.0000    0    14.007    2.493805    2.896876    0.012992
  11 O     8.0000    0    15.999    0.781479    4.400649    0.296274
  12 O     8.0000    0    15.999    4.684710    3.510308   -0.254735
  13 H     1.0000    0     1.008    5.838684   -0.672314   -0.020948
  14 H     1.0000    0     1.008    5.144267   -5.342612    0.002528
  15 H     1.0000    0     1.008    0.725296   -7.005024    0.034815
  16 H     1.0000    0     1.008   -2.898498   -4.016134    0.045386
  17 H     1.0000    0     1.008   -2.940926    2.149144    1.783067
  18 H     1.0000    0     1.008   -2.842063    2.324760   -1.553276
  19 H     1.0000    0     1.008   -7.403568    2.238952   -1.721233
  20 H     1.0000    0     1.008   -7.503977    2.065428    1.663326

--------------------------------
INTERNAL COORDINATES (ANGSTROEM)
--------------------------------
 C      0   0   0     0.000000000000     0.00000000     0.00000000
 H      1   0   0     1.097719562128     0.00000000     0.00000000
 O      1   2   0     1.401837996857   107.09396822     0.00000000
 C      3   1   2     1.401651616576   112.66649697   180.04255844
 C      4   3   1     1.508523546546   109.67040576   179.80454630
 C      5   4   3     1.397506861343   118.48056712   356.49698578
 C      6   5   4     1.388780208054   121.68924050   179.92582518
[...]
 203   0.0000       3.230304        87.9010 
 204   0.0000       3.262982        88.7903 
 205   0.0000       3.384239        92.0898 
 206   0.0000       3.395372        92.3928 
 207   0.0000       3.435408        93.4822 
 208   0.0000       3.513827        95.6161 
 209   0.0000       3.643133        99.1347 
 210   0.0000       3.694208       100.5245 
 211   0.0000       3.878816       105.5480 
 212   0.0000       3.888000       105.7979 

                    ********************************
                    * MULLIKEN POPULATION ANALYSIS *
                    ********************************

-----------------------
MULLIKEN ATOMIC CHARGES
-----------------------
   0 C :    0.147125
   1 H :    0.047486
   2 O :   -0.407637
   3 C :    0.317133
   4 C :   -0.159510
   5 C :   -0.045747
   6 C :    0.026700
   7 C :   -0.011008
   8 C :   -0.035539
   9 C :    0.111935
  10 N :    0.237711
  11 O :   -0.254948
  12 O :   -0.241397
  13 H :    0.046078
  14 H :    0.033488
  15 H :    0.034880
  16 H :    0.040637
  17 H :    0.037115
  18 H :    0.030392
  19 H :    0.022107
  20 H :    0.022997
Sum of atomic charges:    0.0000000

--------------------------------
MULLIKEN REDUCED ORBITAL CHARGES
--------------------------------
  0 C s       :     3.021076  s :     3.021076
      pz      :     1.024517  p :     2.775921
      px      :     0.809245
      py      :     0.942160
      dz2     :     0.008430  d :     0.055878
      dxz     :     0.007822
      dyz     :     0.012626
      dx2y2   :     0.009936
      dxy     :     0.017063
  1 H s       :     0.930522  s :     0.930522
      pz      :     0.005128  p :     0.021992
      px      :     0.008783
      py      :     0.008082
  2 O s       :     3.757202  s :     3.757202
      pz      :     1.874342  p :     4.633731
      px      :     1.191759
      py      :     1.567630
      dz2     :     0.002380  d :     0.016703
      dxz     :     0.002071
      dyz     :     0.001917
      dx2y2   :     0.002695
      dxy     :     0.007640
  3 C s       :     2.888143  s :     2.888143
      pz      :     1.039979  p :     2.730957
      px      :     0.792990
      py      :     0.897987
      dz2     :     0.009123  d :     0.063767
      dxz     :     0.009736
      dyz     :     0.013814
      dx2y2   :     0.011873
      dxy     :     0.019221
  4 C s       :     3.103104  s :     3.103104
      pz      :     0.951131  p :     3.015459
      px      :     1.067733
      py      :     0.996595
      dz2     :     0.003060  d :     0.040947
      dxz     :     0.007000
      dyz     :     0.007286
      dx2y2   :     0.010899
      dxy     :     0.012702
  5 C s       :     3.239665  s :     3.239665
      pz      :     0.972654  p :     2.772313
      px      :     0.855815
      py      :     0.943843
      dz2     :     0.002564  d :     0.033770
      dxz     :     0.003149
      dyz     :     0.005483
      dx2y2   :     0.011931
      dxy     :     0.010642
  6 C s       :     3.147385  s :     3.147385
      pz      :     0.947043  p :     2.790359
      px      :     0.954846
      py      :     0.888470
      dz2     :     0.002493  d :     0.035556
      dxz     :     0.006848
      dyz     :     0.002733
      dx2y2   :     0.012684
      dxy     :     0.010798
  7 C s       :     3.150088  s :     3.150088
      pz      :     0.991325  p :     2.826127
      px      :     0.908541
      py      :     0.926260
      dz2     :     0.002495  d :     0.034793
      dxz     :     0.004043
      dyz     :     0.004869
      dx2y2   :     0.010911
      dxy     :     0.012474
  8 C s       :     3.249875  s :     3.249875
      pz      :     0.938938  p :     2.751256
      px      :     0.900782
      py      :     0.911536
      dz2     :     0.002621  d :     0.034408
      dxz     :     0.003483
      dyz     :     0.006931
      dx2y2   :     0.008648
      dxy     :     0.012725
  9 C s       :     3.040373  s :     3.040373
      pz      :     1.099896  p :     2.800163
      px      :     0.927688
      py      :     0.772579
      dz2     :     0.004117  d :     0.047529
      dxz     :     0.007681
      dyz     :     0.004148
      dx2y2   :     0.019125
      dxy     :     0.012458
 10 N s       :     3.304952  s :     3.304952
      pz      :     1.149276  p :     3.334299
      px      :     1.035247
      py      :     1.149776
      dz2     :     0.006122  d :     0.123037
      dxz     :     0.028510
      dyz     :     0.008979
      dx2y2   :     0.042693
      dxy     :     0.036732
 11 O s       :     3.860931  s :     3.860931
      pz      :     1.425833  p :     4.371126
      px      :     1.405117
      py      :     1.540176
      dz2     :     0.002814  d :     0.022891
      dxz     :     0.003915
      dyz     :     0.003342
      dx2y2   :     0.004479
      dxy     :     0.008341
 12 O s       :     3.852871  s :     3.852871
      pz      :     1.418914  p :     4.365127
      px      :     1.164128
      py      :     1.782086
      dz2     :     0.002857  d :     0.023399
      dxz     :     0.006697
      dyz     :     0.000748
      dx2y2   :     0.007568
      dxy     :     0.005528
 13 H s       :     0.930021  s :     0.930021
      pz      :     0.004071  p :     0.023901
      px      :     0.013858
      py      :     0.005971
 14 H s       :     0.943434  s :     0.943434
      pz      :     0.004440  p :     0.023078
      px      :     0.010558
      py      :     0.008080
 15 H s       :     0.942639  s :     0.942639
      pz      :     0.004133  p :     0.022481
      px      :     0.003456
      py      :     0.014892
 16 H s       :     0.935287  s :     0.935287
      pz      :     0.004197  p :     0.024076
      px      :     0.015548
      py      :     0.004332
 17 H s       :     0.941012  s :     0.941012
      pz      :     0.011659  p :     0.021873
      px      :     0.002443
      py      :     0.007771
 18 H s       :     0.947401  s :     0.947401
      pz      :     0.010705  p :     0.022207
      px      :     0.002494
      py      :     0.009008
 19 H s       :     0.955467  s :     0.955467
      pz      :     0.011017  p :     0.022426
      px      :     0.002830
      py      :     0.008579
 20 H s       :     0.954924  s :     0.954924
      pz      :     0.011850  p :     0.022079
      px      :     0.002949
      py      :     0.007280


                     *******************************
                     * LOEWDIN POPULATION ANALYSIS *
                     *******************************

----------------------
LOEWDIN ATOMIC CHARGES
----------------------
   0 C :    0.063381
   1 H :    0.025764
   2 O :   -0.167760
   3 C :    0.069797
   4 C :   -0.012559
   5 C :   -0.018105
   6 C :   -0.002535
   7 C :   -0.029603
   8 C :   -0.006285
   9 C :   -0.034815
  10 N :    0.282457
  11 O :   -0.202071
  12 O :   -0.200646
  13 H :    0.046604
  14 H :    0.038546
  15 H :    0.039591
  16 H :    0.041017
  17 H :    0.024629
  18 H :    0.021563
  19 H :    0.010195
  20 H :    0.010836

-------------------------------
LOEWDIN REDUCED ORBITAL CHARGES
-------------------------------
  0 C s       :     2.844524  s :     2.844524
      pz      :     1.073944  p :     2.962665
      px      :     0.879371
      py      :     1.009350
      dz2     :     0.019763  d :     0.129430
      dxz     :     0.015707
      dyz     :     0.033372
      dx2y2   :     0.020444
      dxy     :     0.040145
  1 H s       :     0.911637  s :     0.911637
      pz      :     0.012501  p :     0.062598
      px      :     0.027112
      py      :     0.022985
  2 O s       :     3.441348  s :     3.441348
      pz      :     1.858590  p :     4.696038
      px      :     1.234989
      py      :     1.602459
      dz2     :     0.003899  d :     0.030374
      dxz     :     0.003954
      dyz     :     0.002320
      dx2y2   :     0.005625
      dxy     :     0.014578
  3 C s       :     2.832297  s :     2.832297
      pz      :     1.082568  p :     2.948897
      px      :     0.884910
      py      :     0.981418
      dz2     :     0.021524  d :     0.149010
      dxz     :     0.018683
      dyz     :     0.036506
      dx2y2   :     0.025775
      dxy     :     0.046522
  4 C s       :     2.859451  s :     2.859451
      pz      :     0.926140  p :     3.050949
      px      :     1.048681
      py      :     1.076128
      dz2     :     0.007236  d :     0.102159
      dxz     :     0.013365
      dyz     :     0.013379
      dx2y2   :     0.032374
      dxy     :     0.035804
  5 C s       :     2.855551  s :     2.855551
      pz      :     0.964092  p :     3.073777
      px      :     1.061180
      py      :     1.048506
      dz2     :     0.006053  d :     0.088777
      dxz     :     0.005430
      dyz     :     0.011335
      dx2y2   :     0.034695
      dxy     :     0.031262
  6 C s       :     2.860608  s :     2.860608
      pz      :     0.928736  p :     3.050294
      px      :     1.072183
      py      :     1.049375
      dz2     :     0.005984  d :     0.091634
      dxz     :     0.014097
      dyz     :     0.004460
      dx2y2   :     0.036002
      dxy     :     0.031091
  7 C s       :     2.856106  s :     2.856106
      pz      :     0.972105  p :     3.082776
      px      :     1.054727
      py      :     1.055943
      dz2     :     0.006079  d :     0.090721
      dxz     :     0.007628
      dyz     :     0.009542
      dx2y2   :     0.031785
      dxy     :     0.035688
  8 C s       :     2.860502  s :     2.860502
      pz      :     0.933383  p :     3.055872
      px      :     1.053197
      py      :     1.069292
      dz2     :     0.006243  d :     0.089911
      dxz     :     0.006395
      dyz     :     0.014268
      dx2y2   :     0.026873
      dxy     :     0.036131
  9 C s       :     2.860399  s :     2.860399
      pz      :     1.072008  p :     3.053686
      px      :     1.084544
      py      :     0.897134
      dz2     :     0.009570  d :     0.120729
      dxz     :     0.015307
      dyz     :     0.008341
      dx2y2   :     0.050562
      dxy     :     0.036949
 10 N s       :     3.046490  s :     3.046490
      pz      :     1.103437  p :     3.417453
      px      :     1.132597
      py      :     1.181419
      dz2     :     0.013864  d :     0.253600
      dxz     :     0.050167
      dyz     :     0.014965
      dx2y2   :     0.093481
      dxy     :     0.081123
 11 O s       :     3.606425  s :     3.606425
      pz      :     1.437611  p :     4.551937
      px      :     1.502381
      py      :     1.611946
      dz2     :     0.006469  d :     0.043709
      dxz     :     0.005822
      dyz     :     0.004565
      dx2y2   :     0.007267
      dxy     :     0.019585
 12 O s       :     3.606704  s :     3.606704
      pz      :     1.430187  p :     4.549358
      px      :     1.328351
      py      :     1.790819
      dz2     :     0.006530  d :     0.044585
      dxz     :     0.009673
      dyz     :     0.000974
      dx2y2   :     0.016304
      dxy     :     0.011103
 13 H s       :     0.880470  s :     0.880470
      pz      :     0.012907  p :     0.072925
      px      :     0.040713
      py      :     0.019306
 14 H s       :     0.894020  s :     0.894020
      pz      :     0.013864  p :     0.067435
      px      :     0.030341
      py      :     0.023230
 15 H s       :     0.893713  s :     0.893713
      pz      :     0.012874  p :     0.066697
      px      :     0.011920
      py      :     0.041903
 16 H s       :     0.885922  s :     0.885922
      pz      :     0.013663  p :     0.073061
      px      :     0.045091
      py      :     0.014308
 17 H s       :     0.908925  s :     0.908925
      pz      :     0.033983  p :     0.066446
      px      :     0.009774
      py      :     0.022689
 18 H s       :     0.911945  s :     0.911945
      pz      :     0.029972  p :     0.066491
      px      :     0.010167
      py      :     0.026352
 19 H s       :     0.926466  s :     0.926466
      pz      :     0.030290  p :     0.063339
      px      :     0.009040
      py      :     0.024010
 20 H s       :     0.925932  s :     0.925932
      pz      :     0.033610  p :     0.063232
      px      :     0.009372
      py      :     0.020250


                      *****************************
                      * MAYER POPULATION ANALYSIS *
                      *****************************

  NA   - Mulliken gross atomic population
  ZA   - Total nuclear charge
  QA   - Mulliken gross atomic charge
  VA   - Mayer's total valence
  BVA  - Mayer's bonded valence
  FA   - Mayer's free valence

  ATOM       NA         ZA         QA         VA         BVA        FA
  0 C      5.8529     6.0000     0.1471     3.9311     3.9311     0.0000
  1 H      0.9525     1.0000     0.0475     0.9891     0.9891     0.0000
  2 O      8.4076     8.0000    -0.4076     2.0793     2.0793    -0.0000
  3 C      5.6829     6.0000     0.3171     3.9020     3.9020     0.0000
  4 C      6.1595     6.0000    -0.1595     3.9521     3.9521    -0.0000
  5 C      6.0457     6.0000    -0.0457     3.9174     3.9174    -0.0000
  6 C      5.9733     6.0000     0.0267     3.7991     3.7991     0.0000
  7 C      6.0110     6.0000    -0.0110     3.8210     3.8210     0.0000
  8 C      6.0355     6.0000    -0.0355     3.8831     3.8831     0.0000
  9 C      5.8881     6.0000     0.1119     3.8814     3.8814    -0.0000
 10 N      6.7623     7.0000     0.2377     3.9744     3.9744     0.0000
 11 O      8.2549     8.0000    -0.2549     1.9385     1.9385    -0.0000
 12 O      8.2414     8.0000    -0.2414     1.9601     1.9601     0.0000
 13 H      0.9539     1.0000     0.0461     1.0203     1.0203    -0.0000
 14 H      0.9665     1.0000     0.0335     0.9863     0.9863     0.0000
 15 H      0.9651     1.0000     0.0349     0.9848     0.9848    -0.0000
 16 H      0.9594     1.0000     0.0406     1.0218     1.0218     0.0000
 17 H      0.9629     1.0000     0.0371     1.0030     1.0030     0.0000
 18 H      0.9696     1.0000     0.0304     1.0036     1.0036     0.0000
 19 H      0.9779     1.0000     0.0221     0.9875     0.9875     0.0000
 20 H      0.9770     1.0000     0.0230     0.9878     0.9878     0.0000

  Mayer bond orders larger than 0.100000
B(  0-C ,  1-H ) :   0.9831 B(  0-C ,  2-O ) :   0.9743 B(  0-C , 19-H ) :   0.9688 
B(  0-C , 20-H ) :   0.9686 B(  2-O ,  3-C ) :   1.0140 B(  3-C ,  4-C ) :   1.0018 
B(  3-C , 17-H ) :   0.9208 B(  3-C , 18-H ) :   0.9235 B(  4-C ,  5-C ) :   1.4199 
B(  4-C ,  9-C ) :   1.3988 B(  5-C ,  6-C ) :   1.3750 B(  5-C , 16-H ) :   0.9832 
B(  6-C ,  7-C ) :   1.3699 B(  6-C , 15-H ) :   0.9913 B(  7-C ,  8-C ) :   1.3794 
B(  7-C , 14-H ) :   0.9882 B(  8-C ,  9-C ) :   1.4001 B(  8-C , 13-H ) :   0.9793 
B(  9-C , 10-N ) :   0.8505 B( 10-N , 11-O ) :   1.5219 B( 10-N , 12-O ) :   1.5707 
B( 11-O , 12-O ) :   0.2617 

-------
TIMINGS
-------

Total SCF time: 0 days 0 hours 1 min 11 sec 

Total time                  ....      71.412 sec
Sum of individual times     ....      71.198 sec  ( 99.7%)

Fock matrix formation       ....      69.629 sec  ( 97.5%)
  XC integration            ....       4.420 sec  (  6.3% of F)
    Basis function eval.    ....       1.328 sec  ( 30.0% of XC)
    Density eval.           ....       0.804 sec  ( 18.2% of XC)
    XC-Functional eval.     ....       1.188 sec  ( 26.9% of XC)
    XC-Potential eval.      ....       0.973 sec  ( 22.0% of XC)
Diagonalization             ....       0.006 sec  (  0.0%)
Density matrix formation    ....       0.007 sec  (  0.0%)
Population analysis         ....       0.006 sec  (  0.0%)
Initial guess               ....       0.006 sec  (  0.0%)
Orbital Transformation      ....       0.000 sec  (  0.0%)
Orbital Orthonormalization  ....       0.004 sec  (  0.0%)
DIIS solution               ....       0.002 sec  (  0.0%)
SOSCF solution              ....       0.029 sec  (  0.0%)
Grid generation             ....       1.514 sec  (  2.1%)


-------------------------------------------------------------------------------
                          DFT DISPERSION CORRECTION                            
                                                                               
                              DFTD3 V3.1  Rev 1                                
                              USING zero damping                               
-------------------------------------------------------------------------------
The omegaB97X-D3 functional is recognized. Fit by Chai et al.
Active option DFTDOPT                   ...         3   

molecular C6(AA) [au] = 4692.013858 


            DFT-D V3
 parameters
 s6 scaling factor         :     1.0000 
 rs6 scaling factor        :     1.2810 
 s8 scaling factor         :     1.0000 
 rs8 scaling factor        :     1.0940 
 Damping factor alpha6     :    14.0000 
 Damping factor alpha8     :    16.0000 
 ad hoc parameters k1-k3   :    16.0000     1.3333    -4.0000 

 Edisp/kcal,au: -4.254422400083  -0.006779852930 
 E6   /kcal   :  -1.892264815 
 E8   /kcal   :  -2.362157585 
 % E8         :  55.522403814 

-------------------------   ----------------
Dispersion correction           -0.006779853
-------------------------   ----------------


-------------------------   --------------------
FINAL SINGLE POINT ENERGY      -589.981555582618
-------------------------   --------------------

                                *** OPTIMIZATION RUN DONE ***

                            ***************************************
                            *     ORCA property calculations      *
                            ***************************************

                                    ---------------------
                                    Active property flags
                                    ---------------------
   (+) Dipole Moment


------------------------------------------------------------------------------
                       ORCA ELECTRIC PROPERTIES CALCULATION
------------------------------------------------------------------------------

Dipole Moment Calculation                       ... on
Quadrupole Moment Calculation                   ... off
Polarizability Calculation                      ... off
GBWName                                         ... 012616689.gbw
Electron density file                           ... 012616689.scfp
The origin for moment calculation is the CENTER OF MASS  = ( 0.018301,  0.009644 -0.000504)

-------------
DIPOLE MOMENT
-------------
                                X             Y             Z
Electronic contribution:      9.77007       3.14857       0.00154
Nuclear contribution   :    -10.41005      -4.25560       0.03509
                        -----------------------------------------
Total Dipole Moment    :     -0.63998      -1.10703       0.03663
                        -----------------------------------------
Magnitude (a.u.)       :      1.27923
Magnitude (Debye)      :      3.25155



--------------------
Rotational spectrum 
--------------------
 
Rotational constants in cm-1:     0.041945     0.025948     0.016155 
Rotational constants in MHz :  1257.491471   777.887775   484.303141 

 Dipole components along the rotational axes: 
x,y,z [a.u.] :    -0.659017     1.095780     0.037438 
x,y,z [Debye]:    -1.675087     2.785252     0.095161 

 

Timings for individual modules:

Sum of individual times         ...     1149.547 sec (=  19.159 min)
GTO integral calculation        ...        2.391 sec (=   0.040 min)   0.2 %
SCF iterations                  ...      791.592 sec (=  13.193 min)  68.9 %
SCF Gradient evaluation         ...      354.715 sec (=   5.912 min)  30.9 %
Geometry relaxation             ...        0.849 sec (=   0.014 min)   0.1 %
                             ****ORCA TERMINATED NORMALLY****
TOTAL RUN TIME: 0 days 0 hours 19 minutes 10 seconds 640 msec
