
                                 *****************
                                 * O   R   C   A *
                                 *****************

           --- An Ab Initio, DFT and Semiempirical electronic structure package ---

                  #######################################################
                  #                        -***-                        #
                  #          Department of theory and spectroscopy      #
                  #               Directorship: Frank Neese             #
                  #        Max Planck Institute fuer Kohlenforschung    #
                  #                Kaiser Wilhelm Platz 1               #
                  #                 D-45470 Muelheim/Ruhr               #
                  #                      Germany                        #
                  #                                                     #
                  #                  All rights reserved                #
                  #                        -***-                        #
                  #######################################################


                         Program Version 4.2.0 -  RELEASE  -


 With contributions from (in alphabetic order):
   Daniel Aravena         : Magnetic Suceptibility
   Michael Atanasov       : Ab Initio Ligand Field Theory (pilot matlab implementation)
   Alexander A. Auer      : GIAO ZORA, VPT2
   Ute Becker             : Parallelization
   Giovanni Bistoni       : ED, misc. LED, open-shell LED, HFLED
   Martin Brehm           : Molecular dynamics
   Dmytro Bykov           : SCF Hessian
   Vijay G. Chilkuri      : MRCI spin determinant printing, contributions to CSF-ICE
   Dipayan Datta          : RHF DLPNO-CCSD density
   Achintya Kumar Dutta   : EOM-CC, STEOM-CC
   Dmitry Ganyushin       : Spin-Orbit,Spin-Spin,Magnetic field MRCI
   Miquel Garcia          : C-PCM Hessian, Gaussian charge scheme
   Yang Guo               : DLPNO-NEVPT2, CIM, IAO-localization
   Andreas Hansen         : Spin unrestricted coupled pair/coupled cluster methods
   Benjamin Helmich-Paris : CASSCF linear response (MC-RPA)
   Lee Huntington         : MR-EOM, pCC
   Robert Izsak           : Overlap fitted RIJCOSX, COSX-SCS-MP3, EOM
   Christian Kollmar      : KDIIS, OOCD, Brueckner-CCSD(T), CCSD density
   Simone Kossmann        : Meta GGA functionals, TD-DFT gradient, OOMP2, MP2 Hessian
   Martin Krupicka        : AUTO-CI
   Lucas Lang             : DCDCAS
   Dagmar Lenk            : GEPOL surface, SMD
   Dimitrios Liakos       : Extrapolation schemes; Compound Job, initial MDCI parallelization
   Dimitrios Manganas     : Further ROCIS development; embedding schemes
   Dimitrios Pantazis     : SARC Basis sets
   Taras Petrenko         : DFT Hessian,TD-DFT gradient, ASA, ECA, R-Raman, ABS, FL, XAS/XES, NRVS
   Peter Pinski           : DLPNO-MP2, DLPNO-MP2 Gradient
   Christoph Reimann      : Effective Core Potentials
   Marius Retegan         : Local ZFS, SOC
   Christoph Riplinger    : Optimizer, TS searches, QM/MM, DLPNO-CCSD(T), (RO)-DLPNO pert. Triples
   Tobias Risthaus        : Range-separated hybrids, TD-DFT gradient, RPA, STAB
   Michael Roemelt        : Original ROCIS implementation
   Masaaki Saitow         : Open-shell DLPNO-CCSD energy and density
   Barbara Sandhoefer     : DKH picture change effects
   Avijit Sen             : IP-ROCIS
   Kantharuban Sivalingam : CASSCF convergence, NEVPT2, FIC-MRCI
   Bernardo de Souza      : ESD, SOC TD-DFT
   Georgi Stoychev        : AutoAux, RI-MP2 NMR
   Willem Van den Heuvel  : Paramagnetic NMR
   Boris Wezisla          : Elementary symmetry handling
   Frank Wennmohs         : Technical directorship


 We gratefully acknowledge several colleagues who have allowed us to
 interface, adapt or use parts of their codes:
   Stefan Grimme, W. Hujo, H. Kruse,             : VdW corrections, initial TS optimization,
                  C. Bannwarth                     DFT functionals, gCP, sTDA/sTD-DF
   Ed Valeev, F. Pavosevic, A. Kumar             : LibInt (2-el integral package), F12 methods
   Garnet Chan, S. Sharma, J. Yang, R. Olivares  : DMRG
   Ulf Ekstrom                                   : XCFun DFT Library
   Mihaly Kallay                                 : mrcc  (arbitrary order and MRCC methods)
   Andreas Klamt, Michael Diedenhofen            : otool_cosmo (COSMO solvation model)
   Jiri Pittner, Ondrej Demel                    : Mk-CCSD
   Frank Weinhold                                : gennbo (NPA and NBO analysis)
   Christopher J. Cramer and Donald G. Truhlar   : smd solvation model
   Lars Goerigk                                  : TD-DFT with DH, B97 family of functionals
   V. Asgeirsson, H. Jonsson                     : NEB implementation
   FAccTs GmbH                                   : IRC, NEB, NEB-TS, Multilevel, MM, QM/MM, CI optimization
   S Lehtola, MJT Oliveira, MAL Marques          : LibXC Library


 Your calculation uses the libint2 library for the computation of 2-el integrals
 For citations please refer to: http://libint.valeyev.net

 Your ORCA version has been built with support for libXC version: 4.2.3
 For citations please refer to: https://tddft.org/programs/libxc/

 This ORCA versions uses:
   CBLAS   interface :  Fast vector & matrix operations
   LAPACKE interface :  Fast linear algebra routines
   SCALAPACK package :  Parallel linear algebra routines


Your calculation utilizes the atom-pairwise dispersion correction
with the zero-damping scheme (D30)
Cite in your paper:
S.Grimme, J.Antony, S.Ehrlich and H.Krieg, J.Chem.Phys., 132, (2010), 154104 
   

XCFun DFT library Copyright 2009-2010 Ulf Ekstrom and contributors.
See http://admol.org/xcfun for more information. This is free soft-
ware; see the source code for copying conditions. There is ABSOLUTELY
NO WARRANTY; not even for MERCHANTABILITY or FITNESS FOR A PARTICULAR
PURPOSE. For details see the documentation. Scientific users of this 
library should cite U. Ekstrom, L. Visscher, R. Bast, A. J. Thorvald-
sen and K. Ruud; J.Chem.Theor.Comp. 2010, DOI: 10.1021/ct100117s
XCFun Version 0.99 
----- Orbital basis set information -----
Your calculation utilizes the basis: def2-SVP
   F. Weigend and R. Ahlrichs, Phys. Chem. Chem. Phys. 7, 3297 (2005).

================================================================================
                                        WARNINGS
                       Please study these warnings very carefully!
================================================================================


WARNING: Geometry Optimization
  ===> : Switching off AutoStart
         For restart on a previous wavefunction, please use MOREAD

INFO   : the flag for use of LIBINT has been found!

================================================================================
                                       INPUT FILE
================================================================================
NAME = 018473915.inp
|  1> # ORCA input file
|  2> # -40.95396674
|  3> ! wB97X-D3 def2-SVP Opt
|  4> * xyz 0 1
|  5>    C       -3.38570        -2.16370         0.00190
|  6>    H       -3.87400        -1.75370        -0.89010
|  7>    O       -2.00810        -1.88570         0.00230
|  8>    C       -1.73760        -0.50550        -0.00100
|  9>    C       -0.25830        -0.26050        -0.00070
| 10>    C        0.59840        -1.35470        -0.00040
| 11>    C        1.96740        -1.17020        -0.00030
| 12>    C        2.54320         0.09220        -0.00060
| 13>    C        1.70350         1.18250        -0.00060
| 14>    C        0.31730         1.01980        -0.00060
| 15>    N       -0.47130         2.22310        -0.00020
| 16>    O        0.11950         3.28250         0.00670
| 17>    O       -1.68220         2.12330        -0.00680
| 18>    H        2.09980         2.18660        -0.00060
| 19>    H        3.61520         0.20200        -0.00090
| 20>    F        2.76490        -2.24680        -0.00020
| 21>    H        0.18180        -2.34800        -0.00020
| 22>    H       -2.19140        -0.02830        -0.88520
| 23>    H       -2.19290        -0.02370         0.87990
| 24>    H       -3.48140        -3.24730         0.00340
| 25>    H       -3.87540        -1.75100         0.89180
| 26> *
| 27> 
| 28>                          ****END OF INPUT****
================================================================================

                       *****************************
                       * Geometry Optimization Run *
                       *****************************

Geometry optimization settings:
Update method            Update   .... BFGS
Choice of coordinates    CoordSys .... Z-matrix Internals
Initial Hessian          InHess   .... Almoef's Model

Convergence Tolerances:
Energy Change            TolE     ....  5.0000e-06 Eh
Max. Gradient            TolMAXG  ....  3.0000e-04 Eh/bohr
RMS Gradient             TolRMSG  ....  1.0000e-04 Eh/bohr
Max. Displacement        TolMAXD  ....  4.0000e-03 bohr
RMS Displacement         TolRMSD  ....  2.0000e-03 bohr
Strict Convergence                ....  False
------------------------------------------------------------------------------
                        ORCA OPTIMIZATION COORDINATE SETUP
------------------------------------------------------------------------------

The optimization will be done in new redundant internal coordinates
Making redundant internal coordinates   ...  (new redundants) done
Evaluating the initial hessian          ...  (Almloef) done
Evaluating the coordinates              ...  done
Calculating the B-matrix                .... done
Calculating the G-matrix                .... done
Diagonalizing the G-matrix              .... done
Small eigenvalue found = 1.038e-02
The first mode is                       ....   38
The number of degrees of freedom        ....   57

    -----------------------------------------------------------------
                    Redundant Internal Coordinates


    -----------------------------------------------------------------
         Definition                    Initial Value    Approx d2E/dq
    -----------------------------------------------------------------
      1. B(H   1,C   0)                  1.0964         0.351669   
      2. B(O   2,C   0)                  1.4054         0.528875   
      3. B(C   3,O   2)                  1.4065         0.526760   
      4. B(C   4,C   3)                  1.4995         0.417942   
      5. B(C   5,C   4)                  1.3897         0.625533   
      6. B(C   6,C   5)                  1.3814         0.644906   
      7. B(C   7,C   6)                  1.3875         0.630525   
      8. B(C   8,C   7)                  1.3762         0.657355   
      9. B(C   9,C   8)                  1.3957         0.611815   
     10. B(C   9,C   4)                  1.4037         0.594044   
     11. B(N  10,C   9)                  1.4387         0.467949   
     12. B(O  11,N  10)                  1.2130         0.960220   
     13. B(O  12,N  10)                  1.2150         0.953182   
     14. B(H  13,C   8)                  1.0795         0.374293   
     15. B(H  14,C   7)                  1.0776         0.376871   
     16. B(F  15,C   6)                  1.3398         0.625247   
     17. B(H  16,C   5)                  1.0771         0.377540   
     18. B(H  17,C   3)                  1.1025         0.343962   
     19. B(H  18,C   3)                  1.1025         0.343991   
     20. B(H  19,C   0)                  1.0878         0.362997   
     21. B(H  20,C   0)                  1.0964         0.351758   
     22. A(H  19,C   0,H  20)          109.5450         0.290136   
     23. A(H   1,C   0,H  20)          108.7023         0.288698   
     24. A(H   1,C   0,O   2)          111.2728         0.340137   
     25. A(O   2,C   0,H  19)          106.4561         0.341946   
     26. A(H   1,C   0,H  19)          109.5377         0.290124   
     27. A(O   2,C   0,H  20)          111.2928         0.340151   
     28. A(C   0,O   2,C   3)          112.4976         0.404558   
     29. A(C   4,C   3,H  18)          109.6254         0.327885   
     30. A(C   4,C   3,H  17)          109.6043         0.327881   
     31. A(O   2,C   3,H  17)          110.3331         0.338654   
     32. A(O   2,C   3,H  18)          110.3382         0.338659   
     33. A(O   2,C   3,C   4)          110.4924         0.390667   
     34. A(H  17,C   3,H  18)          106.3603         0.286697   
     35. A(C   5,C   4,C   9)          117.7331         0.431430   
     36. A(C   3,C   4,C   5)          118.6551         0.405235   
     37. A(C   3,C   4,C   9)          123.6117         0.401559   
     38. A(C   6,C   5,H  16)          120.4292         0.358138   
     39. A(C   4,C   5,C   6)          120.3835         0.437857   
     40. A(C   4,C   5,H  16)          119.1873         0.356286   
     41. A(C   5,C   6,C   7)          122.1940         0.438485   
     42. A(C   7,C   6,F  15)          118.9521         0.431267   
     43. A(C   5,C   6,F  15)          118.8540         0.433018   
     44. A(C   6,C   7,C   8)          117.8797         0.440000   
     45. A(C   8,C   7,H  14)          121.7537         0.359196   
     46. A(C   6,C   7,H  14)          120.3666         0.356660   
     47. A(C   7,C   8,C   9)          120.9076         0.437615   
     48. A(C   9,C   8,H  13)          118.2325         0.354429   
     49. A(C   7,C   8,H  13)          120.8599         0.358777   
     50. A(C   8,C   9,N  10)          116.5452         0.409148   
     51. A(C   4,C   9,N  10)          122.5528         0.407019   
     52. A(C   4,C   9,C   8)          120.9021         0.429716   
     53. A(C   9,N  10,O  12)          118.5273         0.437084   
     54. A(C   9,N  10,O  11)          117.6129         0.437664   
     55. A(O  11,N  10,O  12)          123.8598         0.495144   
     56. D(C   3,O   2,C   0,H  20)    -60.7563         0.022208   
     57. D(C   3,O   2,C   0,H   1)     60.6462         0.022208   
     58. D(C   3,O   2,C   0,H  19)    179.9349         0.022208   
     59. D(H  17,C   3,O   2,C   0)    -58.6243         0.022023   
     60. D(C   4,C   3,O   2,C   0)   -179.9892         0.022023   
     61. D(H  18,C   3,O   2,C   0)     58.6161         0.022023   
     62. D(C   5,C   4,C   3,O   2)      0.1400         0.012920   
     63. D(C   9,C   4,C   3,H  17)     58.3495         0.012920   
     64. D(C   9,C   4,C   3,H  18)    -58.0390         0.012920   
     65. D(C   5,C   4,C   3,H  17)   -121.6556         0.012920   
     66. D(C   5,C   4,C   3,H  18)    121.9559         0.012920   
     67. D(C   9,C   4,C   3,O   2)   -179.8549         0.012920   
     68. D(H  16,C   5,C   4,C   3)     -0.0116         0.027106   
     69. D(C   6,C   5,C   4,C   9)     -0.0136         0.027106   
     70. D(C   6,C   5,C   4,C   3)    179.9913         0.027106   
     71. D(H  16,C   5,C   4,C   9)    179.9836         0.027106   
     72. D(F  15,C   6,C   5,H  16)      0.0122         0.028926   
     73. D(F  15,C   6,C   5,C   4)   -179.9907         0.028926   
     74. D(C   7,C   6,C   5,H  16)    179.9975         0.028926   
     75. D(C   7,C   6,C   5,C   4)     -0.0053         0.028926   
     76. D(H  14,C   7,C   6,F  15)      0.0093         0.027568   
     77. D(H  14,C   7,C   6,C   5)   -179.9761         0.027568   
     78. D(C   8,C   7,C   6,F  15)   -179.9954         0.027568   
     79. D(C   8,C   7,C   6,C   5)      0.0193         0.027568   
     80. D(H  13,C   8,C   7,H  14)     -0.0188         0.030135   
     81. D(H  13,C   8,C   7,C   6)    179.9860         0.030135   
     82. D(C   9,C   8,C   7,H  14)    179.9812         0.030135   
     83. D(C   9,C   8,C   7,C   6)     -0.0140         0.030135   
     84. D(N  10,C   9,C   4,C   3)      0.0273         0.024302   
     85. D(C   8,C   9,C   4,C   5)      0.0186         0.024302   
     86. D(C   8,C   9,C   4,C   3)   -179.9865         0.024302   
     87. D(N  10,C   9,C   8,H  13)     -0.0178         0.025861   
     88. D(N  10,C   9,C   8,C   7)    179.9822         0.025861   
     89. D(C   4,C   9,C   8,H  13)    179.9952         0.025861   
     90. D(C   4,C   9,C   8,C   7)     -0.0048         0.025861   
     91. D(N  10,C   9,C   4,C   5)   -179.9676         0.024302   
     92. D(O  12,N  10,C   9,C   8)    179.6451         0.017258   
     93. D(O  12,N  10,C   9,C   4)     -0.3682         0.017258   
     94. D(O  11,N  10,C   9,C   8)     -0.3515         0.017258   
     95. D(O  11,N  10,C   9,C   4)    179.6352         0.017258   
    -----------------------------------------------------------------

Number of atoms                         .... 21
Number of degrees of freedom            .... 95

         *************************************************************
         *                GEOMETRY OPTIMIZATION CYCLE   1            *
         *************************************************************
---------------------------------
CARTESIAN COORDINATES (ANGSTROEM)
---------------------------------
  C     -3.385700   -2.163700    0.001900
  H     -3.874000   -1.753700   -0.890100
  O     -2.008100   -1.885700    0.002300
  C     -1.737600   -0.505500   -0.001000
  C     -0.258300   -0.260500   -0.000700
  C      0.598400   -1.354700   -0.000400
  C      1.967400   -1.170200   -0.000300
  C      2.543200    0.092200   -0.000600
  C      1.703500    1.182500   -0.000600
  C      0.317300    1.019800   -0.000600
  N     -0.471300    2.223100   -0.000200
  O      0.119500    3.282500    0.006700
  O     -1.682200    2.123300   -0.006800
  H      2.099800    2.186600   -0.000600
  H      3.615200    0.202000   -0.000900
  F      2.764900   -2.246800   -0.000200
  H      0.181800   -2.348000   -0.000200
  H     -2.191400   -0.028300   -0.885200
  H     -2.192900   -0.023700    0.879900
  H     -3.481400   -3.247300    0.003400
  H     -3.875400   -1.751000    0.891800

----------------------------
CARTESIAN COORDINATES (A.U.)
----------------------------
  NO LB      ZA    FRAG     MASS         X           Y           Z
   0 C     6.0000    0    12.011   -6.398046   -4.088800    0.003590
   1 H     1.0000    0     1.008   -7.320799   -3.314013   -1.682045
   2 O     8.0000    0    15.999   -3.794759   -3.563457    0.004346
   3 C     6.0000    0    12.011   -3.283588   -0.955257   -0.001890
   4 C     6.0000    0    12.011   -0.488116   -0.492274   -0.001323
   5 C     6.0000    0    12.011    1.130812   -2.560012   -0.000756
   6 C     6.0000    0    12.011    3.717847   -2.211358   -0.000567
   7 C     6.0000    0    12.011    4.805952    0.174233   -0.001134
   8 C     6.0000    0    12.011    3.219148    2.234601   -0.001134
   9 C     6.0000    0    12.011    0.599610    1.927143   -0.001134
  10 N     7.0000    0    14.007   -0.890628    4.201050   -0.000378
  11 O     8.0000    0    15.999    0.225822    6.203026    0.012661
  12 O     8.0000    0    15.999   -3.178897    4.012456   -0.012850
  13 H     1.0000    0     1.008    3.968047    4.132075   -0.001134
  14 H     1.0000    0     1.008    6.831738    0.381725   -0.001701
  15 F     9.0000    0    18.998    5.224904   -4.245837   -0.000378
  16 H     1.0000    0     1.008    0.343552   -4.437077   -0.000378
  17 H     1.0000    0     1.008   -4.141146   -0.053479   -1.672786
  18 H     1.0000    0     1.008   -4.143980   -0.044787    1.662770
  19 H     1.0000    0     1.008   -6.578893   -6.136508    0.006425
  20 H     1.0000    0     1.008   -7.323445   -3.308910    1.685258

--------------------------------
INTERNAL COORDINATES (ANGSTROEM)
--------------------------------
 C      0   0   0     0.000000000000     0.00000000     0.00000000
 H      1   0   0     1.096449219070     0.00000000     0.00000000
 O      1   2   0     1.405370385343   111.27281602     0.00000000
 C      3   1   2     1.406461225914   112.49759690    60.64619350
 C      4   3   1     1.499451092900   110.49244063   180.01084842
 C      5   4   3     1.389679322722   118.65514246     0.13996937
 C      6   5   4     1.381376581530   120.38354203   179.99125193
 C      7   6   5     1.387515581894   122.19395415     0.00000000
 C      8   7   6     1.376172292992   117.87969691     0.00000000
 C      9   8   7     1.395715490349   120.90759784     0.00000000
 N     10   9   8     1.438687252324   116.54515793   179.98219279
 O     11  10   9     1.213021273515   117.61293040   359.64848041
 O     11  10   9     1.215023625285   118.52729135   179.64505807
 H      9   8   7     1.079476956679   120.85990632   179.98598518
 H      8   7   6     1.077608523537   120.36660579   180.02392942
 F      7   6   5     1.339803649794   118.85399204   180.00930893
 H      6   5   4     1.077126032551   119.18729317     0.00000000
 H      4   3   1     1.102480802554   110.33306591   301.37567217
 H      4   3   1     1.102458225966   110.33816422    58.61611942
 H      1   2   3     1.087818780864   109.53769183   242.56598978
 H      1   2   3     1.096380130247   108.70233250   122.90245522

---------------------------
INTERNAL COORDINATES (A.U.)
---------------------------
 C      0   0   0     0.000000000000     0.00000000     0.00000000
 H      1   0   0     2.071988743795     0.00000000     0.00000000
 O      1   2   0     2.655765145022   111.27281602     0.00000000
 C      3   1   2     2.657826534957   112.49759690    60.64619350
 C      4   3   1     2.833551916791   110.49244063   180.01084842
 C      5   4   3     2.626113333917   118.65514246     0.13996937
 C      6   5   4     2.610423426904   120.38354203   179.99125193
 C      7   6   5     2.622024456329   122.19395415     0.00000000
 C      8   7   6     2.600588746846   117.87969691     0.00000000
 C      9   8   7     2.637520037631   120.90759784     0.00000000
 N     10   9   8     2.718724899256   116.54515793   179.98219279
 O     11  10   9     2.292278001564   117.61293040   359.64848041
 O     11  10   9     2.296061898032   118.52729135   179.64505807
 H      9   8   7     2.039915816001   120.85990632   179.98598518
 H      8   7   6     2.036384989065   120.36660579   180.02392942
 F      7   6   5     2.531861971338   118.85399204   180.00930893
 H      6   5   4     2.035473213239   119.18729317     0.00000000
 H      4   3   1     2.083386784733   110.33306591   301.37567217
 H      4   3   1     2.083344121164   110.33816422    58.61611942
 H      1   2   3     2.055679579169   109.53769183   242.56598978
 H      1   2   3     2.071858184839   108.70233250   122.90245522

---------------------
BASIS SET INFORMATION
---------------------
There are 5 groups of distinct atoms

 Group   1 Type C   : 7s4p1d contracted to 3s2p1d pattern {511/31/1}
 Group   2 Type H   : 4s1p contracted to 2s1p pattern {31/1}
 Group   3 Type O   : 7s4p1d contracted to 3s2p1d pattern {511/31/1}
 Group   4 Type N   : 7s4p1d contracted to 3s2p1d pattern {511/31/1}
 Group   5 Type F   : 7s4p1d contracted to 3s2p1d pattern {511/31/1}

Atom   0C    basis set group =>   1
Atom   1H    basis set group =>   2
Atom   2O    basis set group =>   3
Atom   3C    basis set group =>   1
Atom   4C    basis set group =>   1
Atom   5C    basis set group =>   1
Atom   6C    basis set group =>   1
Atom   7C    basis set group =>   1
Atom   8C    basis set group =>   1
Atom   9C    basis set group =>   1
Atom  10N    basis set group =>   4
Atom  11O    basis set group =>   3
Atom  12O    basis set group =>   3
Atom  13H    basis set group =>   2
Atom  14H    basis set group =>   2
Atom  15F    basis set group =>   5
Atom  16H    basis set group =>   2
Atom  17H    basis set group =>   2
Atom  18H    basis set group =>   2
Atom  19H    basis set group =>   2
Atom  20H    basis set group =>   2
------------------------------------------------------------------------------
                           ORCA GTO INTEGRAL CALCULATION
------------------------------------------------------------------------------

                         BASIS SET STATISTICS AND STARTUP INFO

 # of primitive gaussian shells          ...  196
 # of primitive gaussian functions       ...  368
 # of contracted shells                  ...  102
 # of contracted basis functions         ...  222
 Highest angular momentum                ...    2
 Maximum contraction depth               ...    5
 Integral package used                   ... LIBINT
 Integral threshhold            Thresh   ...  2.500e-11
 Primitive cut-off              TCut     ...  2.500e-12


------------------------------ INTEGRAL EVALUATION ----------------------------


 * One electron integrals 
 Pre-screening matrix                    ... done
 Shell pair data                         ... done (   0.001 sec)

-------------------------------------------------------------------------------
                                 ORCA SCF
-------------------------------------------------------------------------------

------------
SCF SETTINGS
------------
Hamiltonian:
 Density Functional     Method          .... DFT(GTOs)
 Exchange Functional    Exchange        .... WB97X-D3
 Correlation Functional Correlation     .... WB97X-D3
 Gradients option       PostSCFGGA      .... off
 Hybrid DFT is turned on
   Fraction HF Exchange ScalHFX         ....  0.195728
   Scaling of DF-GGA-X  ScalDFX         ....  0.000000
   Scaling of DF-GGA-C  ScalDFC         ....  1.000000
   Scaling of DF-LDA-C  ScalLDAC        ....  1.000000
   Perturbative correction              ....  0.000000
   Density functional embedding theory  .... OFF
 Long-range corrected/Screened/Range-Separated Hybrid DFT is turned on
   Amount of maximum screened exact exchange              ....  0.804272
   Range separation parameter mu (erf(mu*r12)/r12)        ....  0.250000


General Settings:
 Integral files         IntName         .... 018473915
 Hartree-Fock type      HFTyp           .... RHF
 Total Charge           Charge          ....    0
 Multiplicity           Mult            ....    1
 Number of Electrons    NEL             ....   96
 Basis Dimension        Dim             ....  222
 Nuclear Repulsion      ENuc            ....    795.0472643014 Eh

Convergence Acceleration:
 DIIS                   CNVDIIS         .... on
   Start iteration      DIISMaxIt       ....    12
   Startup error        DIISStart       ....  0.200000
   # of expansion vecs  DIISMaxEq       ....     5
   Bias factor          DIISBfac        ....   1.050
   Max. coefficient     DIISMaxC        ....  10.000
 Newton-Raphson         CNVNR           .... off
 SOSCF                  CNVSOSCF        .... on
   Start iteration      SOSCFMaxIt      ....   150
   Startup grad/error   SOSCFStart      ....  0.003300
 Level Shifting         CNVShift        .... on
   Level shift para.    LevelShift      ....    0.2500
   Turn off err/grad.   ShiftErr        ....    0.0010
 Zerner damping         CNVZerner       .... off
 Static damping         CNVDamp         .... on
   Fraction old density DampFac         ....    0.7000
   Max. Damping (<1)    DampMax         ....    0.9800
   Min. Damping (>=0)   DampMin         ....    0.0000
   Turn off err/grad.   DampErr         ....    0.1000
 Fernandez-Rico         CNVRico         .... off

SCF Procedure:
 Maximum # iterations   MaxIter         ....   125
 SCF integral mode      SCFMode         .... Direct
   Integral package                     .... LIBINT
 Reset frequency        DirectResetFreq ....    20
 Integral Threshold     Thresh          ....  2.500e-11 Eh
 Primitive CutOff       TCut            ....  2.500e-12 Eh

Convergence Tolerance:
 Convergence Check Mode ConvCheckMode   .... Total+1el-Energy
 Convergence forced     ConvForced      .... 0
 Energy Change          TolE            ....  1.000e-08 Eh
 1-El. energy change                    ....  1.000e-05 Eh
 Orbital Gradient       TolG            ....  1.000e-05
 Orbital Rotation angle TolX            ....  1.000e-05
 DIIS Error             TolErr          ....  5.000e-07


Diagonalization of the overlap matrix:
Smallest eigenvalue                        ... 2.121e-04
Time for diagonalization                   ...    0.080 sec
Threshold for overlap eigenvalues          ... 1.000e-08
Number of eigenvalues below threshold      ... 0
Time for construction of square roots      ...    0.003 sec
Total time needed                          ...    0.084 sec

-------------------
DFT GRID GENERATION
-------------------

General Integration Accuracy     IntAcc      ...  4.340
Radial Grid Type                 RadialGrid  ... Gauss-Chebyshev
Angular Grid (max. acc.)         AngularGrid ... Lebedev-110
Angular grid pruning method      GridPruning ... 3 (G Style)
Weight generation scheme         WeightScheme... Becke
Basis function cutoff            BFCut       ...    1.0000e-11
Integration weight cutoff        WCut        ...    1.0000e-14
Grids for H and He will be reduced by one unit

# of grid points (after initial pruning)     ...  28190 (   0.0 sec)
# of grid points (after weights+screening)   ...  25859 (   0.1 sec)
nearest neighbour list constructed           ...    0.0 sec
Grid point re-assignment to atoms done       ...    0.0 sec
Grid point division into batches done        ...    0.0 sec
Reduced shell lists constructed in    0.2 sec

Total number of grid points                  ...    25859
Total number of batches                      ...      414
Average number of points per batch           ...       62
Average number of grid points per atom       ...     1231
Average number of shells per batch           ...    61.48 (60.28%)
Average number of basis functions per batch  ...   130.23 (58.66%)
Average number of large shells per batch     ...    45.15 (73.43%)
Average number of large basis fcns per batch ...    95.03 (72.97%)
Maximum spatial batch extension              ...  19.49, 20.84, 27.00 au
Average spatial batch extension              ...   3.35,  3.45,  4.05 au

Time for grid setup =    0.276 sec

------------------------------
INITIAL GUESS: MODEL POTENTIAL
------------------------------
Loading Hartree-Fock densities                     ... done
Calculating cut-offs                               ... done
Setting up the integral package                    ... done
Initializing the effective Hamiltonian             ... done
Starting the Coulomb interaction                   ... done (   0.2 sec)
Reading the grid                                   ... done
Mapping shells                                     ... done
Starting the XC term evaluation                    ... done (   0.3 sec)
  promolecular density results
     # of electrons  =     96.007328699
     EX              =    -84.323848375
     EC              =     -3.262172080
     EX+EC           =    -87.586020455
Transforming the Hamiltonian                       ... done (   0.0 sec)
Diagonalizing the Hamiltonian                      ... done (   0.0 sec)
Back transforming the eigenvectors                 ... done (   0.0 sec)
Now organizing SCF variables                       ... done
                      ------------------
                      INITIAL GUESS DONE (   0.8 sec)
                      ------------------
--------------
SCF ITERATIONS
--------------
ITER       Energy         Delta-E        Max-DP      RMS-DP      [F,P]     Damp
               ***  Starting incremental Fock matrix formation  ***
  0   -688.8600646840   0.000000000000 0.07020427  0.00186069  0.2301544 0.7000
  1   -688.9665696023  -0.106504918287 0.03835932  0.00126775  0.0954053 0.7000
                               ***Turning on DIIS***
  2   -689.0147463756  -0.048176773295 0.06155828  0.00245791  0.0390353 0.0000
  3   -689.0979287475  -0.083182371929 0.03819769  0.00076589  0.0573014 0.0000
  4   -689.1092734898  -0.011344742316 0.01057535  0.00019652  0.0106708 0.0000
                      *** Initiating the SOSCF procedure ***
                           *** Shutting down DIIS ***
                      *** Re-Reading the Fockian *** 
                      *** Removing any level shift *** 
ITER      Energy       Delta-E        Grad      Rot      Max-DP    RMS-DP
  5   -689.10977855  -0.0005050614  0.001199  0.001199  0.002528  0.000073
               *** Restarting incremental Fock matrix formation ***
  6   -689.10983587  -0.0000573182  0.000874  0.002583  0.001659  0.000048
  7   -689.10985609  -0.0000202169  0.000325  0.002410  0.001656  0.000049
  8   -689.10985973  -0.0000036453  0.000402  0.000521  0.000796  0.000015
  9   -689.10986183  -0.0000021012  0.000155  0.000271  0.000347  0.000009
 10   -689.10986206  -0.0000002299  0.000051  0.000193  0.000153  0.000004
 11   -689.10986225  -0.0000001901  0.000015  0.000022  0.000053  0.000001
 12   -689.10986226  -0.0000000040  0.000015  0.000012  0.000025  0.000001
                  ***Gradient check signals convergence***
              ***Rediagonalizing the Fockian in SOSCF/NRSCF***

               *****************************************************
               *                     SUCCESS                       *
               *           SCF CONVERGED AFTER  13 CYCLES          *
               *****************************************************

Setting up the final grid:

General Integration Accuracy     IntAcc      ...  4.670
Radial Grid Type                 RadialGrid  ... Gauss-Chebyshev
Angular Grid (max. acc.)         AngularGrid ... Lebedev-302
Angular grid pruning method      GridPruning ... 3 (G Style)
Weight generation scheme         WeightScheme... Becke
Basis function cutoff            BFCut       ...    1.0000e-11
Integration weight cutoff        WCut        ...    1.0000e-14
Grids for H and He will be reduced by one unit

# of grid points (after initial pruning)     ... 107968 (   0.0 sec)
# of grid points (after weights+screening)   ...  97429 (   0.3 sec)
nearest neighbour list constructed           ...    0.0 sec
Grid point re-assignment to atoms done       ...    0.0 sec
Grid point division into batches done        ...    0.3 sec
Reduced shell lists constructed in    0.9 sec

Total number of grid points                  ...    97429
Total number of batches                      ...     1533
Average number of points per batch           ...       63
Average number of grid points per atom       ...     4639
Average number of shells per batch           ...    56.09 (54.99%)
Average number of basis functions per batch  ...   117.84 (53.08%)
Average number of large shells per batch     ...    40.41 (72.04%)
Average number of large basis fcns per batch ...    84.33 (71.57%)
Maximum spatial batch extension              ...  16.75, 17.87, 18.66 au
Average spatial batch extension              ...   2.28,  2.33,  2.48 au

Final grid set up in    1.2 sec
Final integration                            ... done (   1.2 sec)
Change in XC energy                          ...     0.000707330
Integrated number of electrons               ...    96.000047537
Previous integrated no of electrons          ...    96.002522428

----------------
TOTAL SCF ENERGY
----------------

Total Energy       :         -689.10915493 Eh          -18751.61342 eV

Components:
Nuclear Repulsion  :          795.04726430 Eh           21634.33593 eV
Electronic Energy  :        -1484.15641923 Eh          -40385.94935 eV
One Electron Energy:        -2518.65939686 Eh          -68536.20650 eV
Two Electron Energy:         1034.50297763 Eh           28150.25715 eV

Virial components:
Potential Energy   :        -1372.58230290 Eh          -37349.86329 eV
Kinetic Energy     :          683.47314797 Eh           18598.24987 eV
Virial Ratio       :            2.00824613


DFT components:
N(Alpha)           :       48.000023768259 electrons
N(Beta)            :       48.000023768259 electrons
N(Total)           :       96.000047536518 electrons
E(XC)              :      -62.207562940768 Eh       
DFET-embed. en.    :        0.000000000000 Eh       

---------------
SCF CONVERGENCE
---------------

  Last Energy change         ...   -5.4629e-09  Tolerance :   1.0000e-08
  Last MAX-Density change    ...    7.2885e-06  Tolerance :   1.0000e-07
  Last RMS-Density change    ...    1.8118e-07  Tolerance :   5.0000e-09
  Last Orbital Gradient      ...    2.0275e-06  Tolerance :   1.0000e-05
  Last Orbital Rotation      ...    3.6095e-06  Tolerance :   1.0000e-05

             **** THE GBW FILE WAS UPDATED (018473915.gbw) ****
             **** DENSITY FILE WAS UPDATED (018473915.scfp) ****
             **** ENERGY FILE WAS UPDATED (018473915.en.tmp) ****
             **** THE GBW FILE WAS UPDATED (018473915.gbw) ****
             **** DENSITY FILE WAS UPDATED (018473915.scfp) ****
----------------
ORBITAL ENERGIES
----------------

  NO   OCC          E(Eh)            E(eV) 
   0   2.0000     -24.820096      -675.3892 
   1   2.0000     -19.276342      -524.5359 
   2   2.0000     -19.273895      -524.4694 
   3   2.0000     -19.256061      -523.9840 
   4   2.0000     -14.679885      -399.4600 
   5   2.0000     -10.404919      -283.1322 
   6   2.0000     -10.358629      -281.8726 
   7   2.0000     -10.355224      -281.7800 
   8   2.0000     -10.346275      -281.5365 
   9   2.0000     -10.340923      -281.3908 
  10   2.0000     -10.331668      -281.1390 
  11   2.0000     -10.321282      -280.8564 
  12   2.0000     -10.315371      -280.6955 
  13   2.0000      -1.360508       -37.0213 
  14   2.0000      -1.343930       -36.5702 
  15   2.0000      -1.177248       -32.0346 
  16   2.0000      -1.160262       -31.5723 
  17   2.0000      -1.023948       -27.8630 
  18   2.0000      -0.935806       -25.4646 
  19   2.0000      -0.918595       -24.9962 
  20   2.0000      -0.849848       -23.1255 
  21   2.0000      -0.810633       -22.0584 
  22   2.0000      -0.780771       -21.2458 
  23   2.0000      -0.733498       -19.9595 
  24   2.0000      -0.716243       -19.4900 
  25   2.0000      -0.670658       -18.2495 
  26   2.0000      -0.665591       -18.1117 
  27   2.0000      -0.660843       -17.9825 
  28   2.0000      -0.643517       -17.5110 
  29   2.0000      -0.614212       -16.7136 
  30   2.0000      -0.600720       -16.3464 
  31   2.0000      -0.591752       -16.1024 
  32   2.0000      -0.588535       -16.0148 
  33   2.0000      -0.580625       -15.7996 
  34   2.0000      -0.563919       -15.3450 
  35   2.0000      -0.544773       -14.8240 
  36   2.0000      -0.524183       -14.2637 
  37   2.0000      -0.522800       -14.2261 
  38   2.0000      -0.507119       -13.7994 
  39   2.0000      -0.484462       -13.1829 
  40   2.0000      -0.464984       -12.6529 
  41   2.0000      -0.438198       -11.9240 
  42   2.0000      -0.414286       -11.2733 
  43   2.0000      -0.414162       -11.2699 
  44   2.0000      -0.396460       -10.7882 
  45   2.0000      -0.378129       -10.2894 
  46   2.0000      -0.369923       -10.0661 
  47   2.0000      -0.357038        -9.7155 
  48   0.0000      -0.018079        -0.4919 
  49   0.0000       0.038823         1.0564 
  50   0.0000       0.080736         2.1969 
  51   0.0000       0.138709         3.7745 
  52   0.0000       0.152245         4.1428 
  53   0.0000       0.185810         5.0562 
  54   0.0000       0.197347         5.3701 
  55   0.0000       0.198477         5.4008 
  56   0.0000       0.216128         5.8812 
  57   0.0000       0.220559         6.0017 
  58   0.0000       0.225088         6.1250 
  59   0.0000       0.231000         6.2858 
  60   0.0000       0.243385         6.6229 
  61   0.0000       0.265070         7.2129 
  62   0.0000       0.272906         7.4262 
  63   0.0000       0.313285         8.5249 
  64   0.0000       0.328596         8.9415 
  65   0.0000       0.344595         9.3769 
  66   0.0000       0.356745         9.7075 
  67   0.0000       0.360329         9.8051 
  68   0.0000       0.393605        10.7105 
  69   0.0000       0.407447        11.0872 
  70   0.0000       0.426607        11.6086 
  71   0.0000       0.461491        12.5578 
  72   0.0000       0.469310        12.7706 
  73   0.0000       0.490769        13.3545 
  74   0.0000       0.521873        14.2009 
  75   0.0000       0.527642        14.3579 
  76   0.0000       0.547779        14.9058 
  77   0.0000       0.549645        14.9566 
  78   0.0000       0.565652        15.3922 
  79   0.0000       0.579010        15.7557 
  80   0.0000       0.581730        15.8297 
  81   0.0000       0.598557        16.2876 
  82   0.0000       0.604740        16.4558 
  83   0.0000       0.608005        16.5447 
  84   0.0000       0.625521        17.0213 
  85   0.0000       0.659621        17.9492 
  86   0.0000       0.674470        18.3533 
  87   0.0000       0.689372        18.7588 
  88   0.0000       0.709585        19.3088 
  89   0.0000       0.716229        19.4896 
  90   0.0000       0.722494        19.6601 
  91   0.0000       0.735863        20.0239 
  92   0.0000       0.742282        20.1985 
  93   0.0000       0.746212        20.3054 
  94   0.0000       0.750986        20.4354 
  95   0.0000       0.762985        20.7619 
  96   0.0000       0.772321        21.0159 
  97   0.0000       0.783504        21.3202 
  98   0.0000       0.783972        21.3329 
  99   0.0000       0.799490        21.7552 
 100   0.0000       0.807486        21.9728 
 101   0.0000       0.810292        22.0492 
 102   0.0000       0.846511        23.0347 
 103   0.0000       0.866443        23.5771 
 104   0.0000       0.886672        24.1276 
 105   0.0000       0.903276        24.5794 
 106   0.0000       0.908756        24.7285 
 107   0.0000       0.964006        26.2319 
 108   0.0000       0.983369        26.7588 
 109   0.0000       0.993702        27.0400 
 110   0.0000       1.024508        27.8783 
 111   0.0000       1.041937        28.3526 
 112   0.0000       1.080352        29.3979 
 113   0.0000       1.088315        29.6146 
 114   0.0000       1.119840        30.4724 
 115   0.0000       1.131138        30.7798 
 116   0.0000       1.151544        31.3351 
 117   0.0000       1.172567        31.9072 
 118   0.0000       1.218062        33.1452 
 119   0.0000       1.230987        33.4969 
 120   0.0000       1.244960        33.8771 
 121   0.0000       1.276098        34.7244 
 122   0.0000       1.279587        34.8193 
 123   0.0000       1.294561        35.2268 
 124   0.0000       1.321988        35.9731 
 125   0.0000       1.331124        36.2217 
 126   0.0000       1.355761        36.8921 
 127   0.0000       1.380364        37.5616 
 128   0.0000       1.412955        38.4485 
 129   0.0000       1.420046        38.6414 
 130   0.0000       1.421566        38.6828 
 131   0.0000       1.457411        39.6582 
 132   0.0000       1.475118        40.1400 
 133   0.0000       1.550335        42.1868 
 134   0.0000       1.567972        42.6667 
 135   0.0000       1.575320        42.8666 
 136   0.0000       1.580049        42.9953 
 137   0.0000       1.610582        43.8262 
 138   0.0000       1.623035        44.1650 
 139   0.0000       1.634246        44.4701 
 140   0.0000       1.664892        45.3040 
 141   0.0000       1.710888        46.5556 
 142   0.0000       1.731130        47.1064 
 143   0.0000       1.763254        47.9806 
 144   0.0000       1.771739        48.2115 
 145   0.0000       1.797372        48.9090 
 146   0.0000       1.806335        49.1529 
 147   0.0000       1.817977        49.4697 
 148   0.0000       1.825970        49.6872 
 149   0.0000       1.835702        49.9520 
 150   0.0000       1.854203        50.4554 
 151   0.0000       1.869533        50.8726 
 152   0.0000       1.874342        51.0034 
 153   0.0000       1.874589        51.0102 
 154   0.0000       1.904687        51.8292 
 155   0.0000       1.909306        51.9549 
 156   0.0000       1.933709        52.6189 
 157   0.0000       1.957078        53.2548 
 158   0.0000       1.984266        53.9946 
 159   0.0000       1.992024        54.2057 
 160   0.0000       2.007992        54.6402 
 161   0.0000       2.028135        55.1883 
 162   0.0000       2.045184        55.6523 
 163   0.0000       2.058811        56.0231 
 164   0.0000       2.091974        56.9255 
 165   0.0000       2.151105        58.5345 
 166   0.0000       2.177068        59.2410 
 167   0.0000       2.208102        60.0855 
 168   0.0000       2.218551        60.3698 
 169   0.0000       2.228936        60.6524 
 170   0.0000       2.260477        61.5107 
 171   0.0000       2.276234        61.9395 
 172   0.0000       2.304766        62.7159 
 173   0.0000       2.319033        63.1041 
 174   0.0000       2.354342        64.0649 
 175   0.0000       2.354869        64.0793 
 176   0.0000       2.375691        64.6459 
 177   0.0000       2.415955        65.7415 
 178   0.0000       2.434264        66.2397 
 179   0.0000       2.444871        66.5283 
 180   0.0000       2.462325        67.0033 
 181   0.0000       2.466548        67.1182 
 182   0.0000       2.489334        67.7382 
 183   0.0000       2.533517        68.9405 
 184   0.0000       2.577445        70.1359 
 185   0.0000       2.585181        70.3464 
 186   0.0000       2.663518        72.4780 
 187   0.0000       2.688763        73.1650 
 188   0.0000       2.689942        73.1971 
 189   0.0000       2.700187        73.4758 
 190   0.0000       2.746120        74.7257 
 191   0.0000       2.757251        75.0286 
 192   0.0000       2.766103        75.2695 
 193   0.0000       2.799795        76.1863 
 194   0.0000       2.811228        76.4974 
 195   0.0000       2.829389        76.9916 
 196   0.0000       2.889173        78.6184 
 197   0.0000       2.906265        79.0835 
 198   0.0000       2.926993        79.6475 
 199   0.0000       2.955525        80.4239 
 200   0.0000       2.970386        80.8283 
 201   0.0000       2.982866        81.1679 
 202   0.0000       3.010978        81.9329 
 203   0.0000       3.034175        82.5641 
 204   0.0000       3.040978        82.7492 
 205   0.0000       3.156425        85.8907 
 206   0.0000       3.157824        85.9288 
 207   0.0000       3.162499        86.0560 
 208   0.0000       3.193798        86.9077 
 209   0.0000       3.211293        87.3837 
 210   0.0000       3.263965        88.8170 
 211   0.0000       3.366468        91.6063 
 212   0.0000       3.386005        92.1379 
 213   0.0000       3.403081        92.6025 
 214   0.0000       3.416740        92.9742 
 215   0.0000       3.479958        94.6945 
 216   0.0000       3.611542        98.2751 
 217   0.0000       3.635040        98.9145 
 218   0.0000       3.680402       100.1488 
 219   0.0000       3.871260       105.3424 
 220   0.0000       3.892942       105.9323 
 221   0.0000       3.981537       108.3431 

                    ********************************
                    * MULLIKEN POPULATION ANALYSIS *
                    ********************************

-----------------------
MULLIKEN ATOMIC CHARGES
-----------------------
   0 C :    0.159360
   1 H :    0.022288
   2 O :   -0.421101
   3 C :    0.316067
   4 C :   -0.155386
   5 C :   -0.112665
   6 C :    0.352773
   7 C :   -0.077769
   8 C :   -0.025409
   9 C :    0.115129
  10 N :    0.251584
  11 O :   -0.247048
  12 O :   -0.256216
  13 H :    0.048610
  14 H :    0.037376
  15 F :   -0.196564
  16 H :    0.042162
  17 H :    0.038191
  18 H :    0.037972
  19 H :    0.048280
  20 H :    0.022367
Sum of atomic charges:    0.0000000

--------------------------------
MULLIKEN REDUCED ORBITAL CHARGES
--------------------------------
  0 C s       :     3.010703  s :     3.010703
      pz      :     1.025983  p :     2.774642
      px      :     0.717638
      py      :     1.031021
      dz2     :     0.008528  d :     0.055295
      dxz     :     0.016926
      dyz     :     0.003407
      dx2y2   :     0.017056
      dxy     :     0.009378
  1 H s       :     0.955082  s :     0.955082
      pz      :     0.011784  p :     0.022630
      px      :     0.004759
      py      :     0.006087
  2 O s       :     3.765313  s :     3.765313
      pz      :     1.880475  p :     4.639426
      px      :     1.382645
      py      :     1.376306
      dz2     :     0.002366  d :     0.016361
      dxz     :     0.001873
      dyz     :     0.001931
      dx2y2   :     0.007578
      dxy     :     0.002613
  3 C s       :     2.886576  s :     2.886576
      pz      :     1.043191  p :     2.734447
      px      :     0.971708
      py      :     0.719549
      dz2     :     0.009123  d :     0.062910
      dxz     :     0.005987
      dyz     :     0.017163
      dx2y2   :     0.019000
      dxy     :     0.011636
  4 C s       :     3.099081  s :     3.099081
      pz      :     0.934538  p :     3.013574
      px      :     1.045213
      py      :     1.033823
      dz2     :     0.003146  d :     0.042731
      dxz     :     0.007601
      dyz     :     0.007919
      dx2y2   :     0.012967
      dxy     :     0.011100
  5 C s       :     3.332643  s :     3.332643
      pz      :     1.020754  p :     2.747911
      px      :     0.850021
      py      :     0.877135
      dz2     :     0.002725  d :     0.032112
      dxz     :     0.005451
      dyz     :     0.003385
      dx2y2   :     0.011685
      dxy     :     0.008865
  6 C s       :     2.955563  s :     2.955563
      pz      :     0.949480  p :     2.605362
      px      :     0.874991
      py      :     0.780891
      dz2     :     0.006033  d :     0.086301
      dxz     :     0.011491
      dyz     :     0.013805
      dx2y2   :     0.025315
      dxy     :     0.029656
  7 C s       :     3.222890  s :     3.222890
      pz      :     1.035590  p :     2.821509
      px      :     0.855982
      py      :     0.929937
      dz2     :     0.002676  d :     0.033371
      dxz     :     0.003169
      dyz     :     0.005874
      dx2y2   :     0.011816
      dxy     :     0.009836
  8 C s       :     3.252676  s :     3.252676
      pz      :     0.918370  p :     2.737083
      px      :     0.977064
      py      :     0.841649
      dz2     :     0.002675  d :     0.035650
      dxz     :     0.007570
      dyz     :     0.003761
      dx2y2   :     0.012505
      dxy     :     0.009140
  9 C s       :     3.015474  s :     3.015474
      pz      :     1.123590  p :     2.821189
      px      :     0.816206
      py      :     0.881393
      dz2     :     0.004248  d :     0.048208
      dxz     :     0.006236
      dyz     :     0.005648
      dx2y2   :     0.012574
      dxy     :     0.019503
 10 N s       :     3.288308  s :     3.288308
      pz      :     1.158418  p :     3.336488
      px      :     1.061736
      py      :     1.116334
      dz2     :     0.004769  d :     0.123620
      dxz     :     0.023491
      dyz     :     0.014737
      dx2y2   :     0.037003
      dxy     :     0.043620
 11 O s       :     3.855104  s :     3.855104
      pz      :     1.428540  p :     4.368802
      px      :     1.665219
      py      :     1.275043
      dz2     :     0.002769  d :     0.023142
      dxz     :     0.001566
      dyz     :     0.005620
      dx2y2   :     0.005601
      dxy     :     0.007586
 12 O s       :     3.862325  s :     3.862325
      pz      :     1.433031  p :     4.371074
      px      :     1.100727
      py      :     1.837317
      dz2     :     0.002746  d :     0.022817
      dxz     :     0.006981
      dyz     :     0.000088
      dx2y2   :     0.008467
      dxy     :     0.004536
 13 H s       :     0.926942  s :     0.926942
      pz      :     0.004033  p :     0.024448
      px      :     0.004718
      py      :     0.015696
 14 H s       :     0.938795  s :     0.938795
      pz      :     0.004727  p :     0.023829
      px      :     0.015826
      py      :     0.003276
 15 F s       :     3.890229  s :     3.890229
      pz      :     1.891819  p :     5.297984
      px      :     1.768568
      py      :     1.637598
      dz2     :     0.001136  d :     0.008351
      dxz     :     0.000722
      dyz     :     0.001302
      dx2y2   :     0.001897
      dxy     :     0.003294
 16 H s       :     0.933084  s :     0.933084
      pz      :     0.004439  p :     0.024753
      px      :     0.006117
      py      :     0.014197
 17 H s       :     0.939650  s :     0.939650
      pz      :     0.011342  p :     0.022159
      px      :     0.005608
      py      :     0.005208
 18 H s       :     0.939877  s :     0.939877
      pz      :     0.011282  p :     0.022151
      px      :     0.005620
      py      :     0.005249
 19 H s       :     0.929533  s :     0.929533
      pz      :     0.005153  p :     0.022187
      px      :     0.002094
      py      :     0.014941
 20 H s       :     0.955006  s :     0.955006
      pz      :     0.011751  p :     0.022628
      px      :     0.004772
      py      :     0.006105


                     *******************************
                     * LOEWDIN POPULATION ANALYSIS *
                     *******************************

----------------------
LOEWDIN ATOMIC CHARGES
----------------------
   0 C :    0.070788
   1 H :    0.010696
   2 O :   -0.178536
   3 C :    0.072474
   4 C :    0.003646
   5 C :   -0.046539
   6 C :    0.112725
   7 C :   -0.055586
   8 C :    0.013988
   9 C :   -0.055532
  10 N :    0.287842
  11 O :   -0.205121
  12 O :   -0.202102
  13 H :    0.047585
  14 H :    0.045924
  15 F :   -0.059676
  16 H :    0.048702
  17 H :    0.026030
  18 H :    0.025945
  19 H :    0.026041
  20 H :    0.010707

-------------------------------
LOEWDIN REDUCED ORBITAL CHARGES
-------------------------------
  0 C s       :     2.839953  s :     2.839953
      pz      :     1.075573  p :     2.961313
      px      :     0.815631
      py      :     1.070109
      dz2     :     0.019968  d :     0.127947
      dxz     :     0.040366
      dyz     :     0.008188
      dx2y2   :     0.040209
      dxy     :     0.019215
  1 H s       :     0.924606  s :     0.924606
      pz      :     0.032843  p :     0.064698
      px      :     0.015546
      py      :     0.016310
  2 O s       :     3.450589  s :     3.450589
      pz      :     1.865555  p :     4.698557
      px      :     1.414529
      py      :     1.418473
      dz2     :     0.003837  d :     0.029390
      dxz     :     0.002895
      dyz     :     0.003013
      dx2y2   :     0.014268
      dxy     :     0.005377
  3 C s       :     2.830624  s :     2.830624
      pz      :     1.083836  p :     2.949827
      px      :     1.018135
      py      :     0.847856
      dz2     :     0.021697  d :     0.147075
      dxz     :     0.014257
      dyz     :     0.039668
      dx2y2   :     0.045986
      dxy     :     0.025467
  4 C s       :     2.853245  s :     2.853245
      pz      :     0.909961  p :     3.036646
      px      :     1.059203
      py      :     1.067482
      dz2     :     0.007377  d :     0.106463
      dxz     :     0.013034
      dyz     :     0.016428
      dx2y2   :     0.036826
      dxy     :     0.032798
  5 C s       :     2.851214  s :     2.851214
      pz      :     1.005969  p :     3.108166
      px      :     1.041262
      py      :     1.060936
      dz2     :     0.006780  d :     0.087159
      dxz     :     0.011106
      dyz     :     0.005888
      dx2y2   :     0.034952
      dxy     :     0.028433
  6 C s       :     2.848290  s :     2.848290
      pz      :     0.936155  p :     2.844545
      px      :     1.003389
      py      :     0.905001
      dz2     :     0.013152  d :     0.194440
      dxz     :     0.022152
      dyz     :     0.026238
      dx2y2   :     0.063727
      dxy     :     0.069171
  7 C s       :     2.852375  s :     2.852375
      pz      :     1.009698  p :     3.113877
      px      :     1.050861
      py      :     1.053318
      dz2     :     0.006817  d :     0.089334
      dxz     :     0.004991
      dyz     :     0.012276
      dx2y2   :     0.034852
      dxy     :     0.030397
  8 C s       :     2.854379  s :     2.854379
      pz      :     0.915138  p :     3.038807
      px      :     1.053775
      py      :     1.069894
      dz2     :     0.006326  d :     0.092825
      dxz     :     0.016142
      dyz     :     0.006647
      dx2y2   :     0.035938
      dxy     :     0.027773
  9 C s       :     2.848357  s :     2.848357
      pz      :     1.093506  p :     3.082465
      px      :     1.028320
      py      :     0.960639
      dz2     :     0.010084  d :     0.124709
      dxz     :     0.012441
      dyz     :     0.011565
      dx2y2   :     0.038470
      dxy     :     0.052149
 10 N s       :     3.036615  s :     3.036615
      pz      :     1.106984  p :     3.420243
      px      :     1.143778
      py      :     1.169480
      dz2     :     0.011950  d :     0.255300
      dxz     :     0.040071
      dyz     :     0.024989
      dx2y2   :     0.082050
      dxy     :     0.096240
 11 O s       :     3.608095  s :     3.608095
      pz      :     1.437436  p :     4.552961
      px      :     1.699221
      py      :     1.416304
      dz2     :     0.006652  d :     0.044066
      dxz     :     0.002279
      dyz     :     0.007460
      dx2y2   :     0.011223
      dxy     :     0.016452
 12 O s       :     3.606023  s :     3.606023
      pz      :     1.442379  p :     4.552582
      px      :     1.286680
      py      :     1.823522
      dz2     :     0.006624  d :     0.043498
      dxz     :     0.009464
      dyz     :     0.000137
      dx2y2   :     0.019962
      dxy     :     0.007310
 13 H s       :     0.877492  s :     0.877492
      pz      :     0.012910  p :     0.074923
      px      :     0.016474
      py      :     0.045539
 14 H s       :     0.882616  s :     0.882616
      pz      :     0.015609  p :     0.071460
      px      :     0.044429
      py      :     0.011422
 15 F s       :     3.719543  s :     3.719543
      pz      :     1.885806  p :     5.327268
      px      :     1.778560
      py      :     1.662902
      dz2     :     0.001879  d :     0.012865
      dxz     :     0.000981
      dyz     :     0.001769
      dx2y2   :     0.002860
      dxy     :     0.005377
 16 H s       :     0.874952  s :     0.874952
      pz      :     0.015335  p :     0.076347
      px      :     0.019538
      py      :     0.041474
 17 H s       :     0.906739  s :     0.906739
      pz      :     0.032526  p :     0.067231
      px      :     0.017197
      py      :     0.017509
 18 H s       :     0.906830  s :     0.906830
      pz      :     0.032346  p :     0.067225
      px      :     0.017232
      py      :     0.017648
 19 H s       :     0.910009  s :     0.910009
      pz      :     0.012761  p :     0.063950
      px      :     0.008086
      py      :     0.043104
 20 H s       :     0.924586  s :     0.924586
      pz      :     0.032751  p :     0.064707
      px      :     0.015588
      py      :     0.016368


                      *****************************
                      * MAYER POPULATION ANALYSIS *
                      *****************************

  NA   - Mulliken gross atomic population
  ZA   - Total nuclear charge
  QA   - Mulliken gross atomic charge
  VA   - Mayer's total valence
  BVA  - Mayer's bonded valence
  FA   - Mayer's free valence

  ATOM       NA         ZA         QA         VA         BVA        FA
  0 C      5.8406     6.0000     0.1594     3.9270     3.9270     0.0000
  1 H      0.9777     1.0000     0.0223     0.9890     0.9890    -0.0000
  2 O      8.4211     8.0000    -0.4211     2.0666     2.0666    -0.0000
  3 C      5.6839     6.0000     0.3161     3.9152     3.9152    -0.0000
  4 C      6.1554     6.0000    -0.1554     3.9271     3.9271    -0.0000
  5 C      6.1127     6.0000    -0.1127     3.8482     3.8482     0.0000
  6 C      5.6472     6.0000     0.3528     3.8041     3.8041     0.0000
  7 C      6.0778     6.0000    -0.0778     3.7945     3.7945     0.0000
  8 C      6.0254     6.0000    -0.0254     3.8582     3.8582     0.0000
  9 C      5.8849     6.0000     0.1151     3.8569     3.8569    -0.0000
 10 N      6.7484     7.0000     0.2516     3.9881     3.9881     0.0000
 11 O      8.2470     8.0000    -0.2470     1.9522     1.9522     0.0000
 12 O      8.2562     8.0000    -0.2562     1.9371     1.9371    -0.0000
 13 H      0.9514     1.0000     0.0486     1.0233     1.0233     0.0000
 14 H      0.9626     1.0000     0.0374     0.9976     0.9976    -0.0000
 15 F      9.1966     9.0000    -0.1966     1.1618     1.1618    -0.0000
 16 H      0.9578     1.0000     0.0422     1.0317     1.0317     0.0000
 17 H      0.9618     1.0000     0.0382     1.0047     1.0047     0.0000
 18 H      0.9620     1.0000     0.0380     1.0047     1.0047     0.0000
 19 H      0.9517     1.0000     0.0483     0.9910     0.9910    -0.0000
 20 H      0.9776     1.0000     0.0224     0.9889     0.9889    -0.0000

  Mayer bond orders larger than 0.100000
B(  0-C ,  1-H ) :   0.9701 B(  0-C ,  2-O ) :   0.9660 B(  0-C , 19-H ) :   0.9840 
B(  0-C , 20-H ) :   0.9701 B(  2-O ,  3-C ) :   1.0132 B(  3-C ,  4-C ) :   1.0092 
B(  3-C , 17-H ) :   0.9209 B(  3-C , 18-H ) :   0.9210 B(  4-C ,  5-C ) :   1.3871 
B(  4-C ,  9-C ) :   1.3862 B(  5-C ,  6-C ) :   1.3140 B(  5-C , 16-H ) :   1.0029 
B(  6-C ,  7-C ) :   1.3381 B(  6-C , 15-F ) :   1.0736 B(  7-C ,  8-C ) :   1.3656 
B(  7-C , 14-H ) :   0.9987 B(  8-C ,  9-C ) :   1.3785 B(  8-C , 13-H ) :   0.9813 
B(  9-C , 10-N ) :   0.8870 B( 10-N , 11-O ) :   1.5576 B( 10-N , 12-O ) :   1.5133 
B( 11-O , 12-O ) :   0.2591 

-------
TIMINGS
-------

Total SCF time: 0 days 0 hours 2 min 22 sec 

Total time                  ....     142.874 sec
Sum of individual times     ....     142.605 sec  ( 99.8%)

Fock matrix formation       ....     140.479 sec  ( 98.3%)
  XC integration            ....       5.634 sec  (  4.0% of F)
    Basis function eval.    ....       1.752 sec  ( 31.1% of XC)
    Density eval.           ....       0.995 sec  ( 17.7% of XC)
    XC-Functional eval.     ....       1.335 sec  ( 23.7% of XC)
    XC-Potential eval.      ....       1.392 sec  ( 24.7% of XC)
Diagonalization             ....       0.031 sec  (  0.0%)
Density matrix formation    ....       0.011 sec  (  0.0%)
Population analysis         ....       0.005 sec  (  0.0%)
Initial guess               ....       0.523 sec  (  0.4%)
Orbital Transformation      ....       0.000 sec  (  0.0%)
Orbital Orthonormalization  ....       0.000 sec  (  0.0%)
DIIS solution               ....       0.010 sec  (  0.0%)
SOSCF solution              ....       0.027 sec  (  0.0%)
Grid generation             ....       1.521 sec  (  1.1%)


-------------------------------------------------------------------------------
                          DFT DISPERSION CORRECTION                            
                                                                               
                              DFTD3 V3.1  Rev 1                                
                              USING zero damping                               
-------------------------------------------------------------------------------
The omegaB97X-D3 functional is recognized. Fit by Chai et al.
Active option DFTDOPT                   ...         3   

molecular C6(AA) [au] = 4789.983465 


            DFT-D V3
 parameters
 s6 scaling factor         :     1.0000 
 rs6 scaling factor        :     1.2810 
 s8 scaling factor         :     1.0000 
 rs8 scaling factor        :     1.0940 
 Damping factor alpha6     :    14.0000 
 Damping factor alpha8     :    16.0000 
 ad hoc parameters k1-k3   :    16.0000     1.3333    -4.0000 

 Edisp/kcal,au: -4.447196071395  -0.007087057297 
 E6   /kcal   :  -1.963280397 
 E8   /kcal   :  -2.483915674 
 % E8         :  55.853522853 

-------------------------   ----------------
Dispersion correction           -0.007087057
-------------------------   ----------------


-------------------------   --------------------
FINAL SINGLE POINT ENERGY      -689.116241989209
-------------------------   --------------------

------------------------------------------------------------------------------
                         ORCA SCF GRADIENT CALCULATION
------------------------------------------------------------------------------

Gradient of the Kohn-Sham DFT energy:
Kohn-Sham wavefunction type      ... RKS
Hartree-Fock exchange scaling    ...    0.196
Number of operators              ...    1
Number of atoms                  ...   21
Basis set dimensions             ...  222
Integral neglect threshold       ... 2.5e-11
Integral primitive cutoff        ... 2.5e-12

Nuclear repulsion gradient       ... done
One Electron Gradient            ... done
Pre-screening matrix             ... done
Starting the two electron gradient:
Two electron gradient done
Exchange-correlation gradient    ... done
Dispersion correction            ... done

------------------
CARTESIAN GRADIENT
------------------

   1   C   :   -0.013380145   -0.001677693    0.000067399
   2   H   :    0.003678830   -0.001798471    0.004834840
   3   O   :   -0.001002322   -0.006778646   -0.000006443
   4   C   :    0.007938584    0.012595014   -0.000002236
   5   C   :    0.003107242   -0.003198656   -0.000003212
   6   C   :   -0.002257634   -0.002354886   -0.000003897
   7   C   :   -0.008001256    0.008762879    0.000022245
   8   C   :    0.003708374    0.004977359    0.000003607
   9   C   :    0.003812458   -0.000999170    0.000002674
  10   C   :   -0.012589201    0.013116325   -0.000001009
  11   N   :    0.006140091   -0.016471746   -0.000017685
  12   O   :    0.002966149    0.000222795    0.000014457
  13   O   :   -0.000151417   -0.000286099   -0.000000287
  14   H   :   -0.002370835   -0.006834353   -0.000007933
  15   H   :   -0.009508446   -0.000627321   -0.000004221
  16   F   :    0.005555084   -0.007453671   -0.000004443
  17   H   :    0.003460480    0.008462676   -0.000005846
  18   H   :    0.001050604   -0.002158693    0.000968873
  19   H   :    0.001060104   -0.002154909   -0.000973450
  20   H   :    0.003102325    0.006493617   -0.000018514
  21   H   :    0.003680930   -0.001836352   -0.004864917

Difference to translation invariance:
           :    0.0000000000    0.0000000000    0.0000000000

Norm of the cartesian gradient     ...    0.0422307484
RMS gradient                       ...    0.0053205742
MAX gradient                       ...    0.0164717456

-------
TIMINGS
-------

Total SCF gradient time            ...       51.738 sec

One electron gradient       ....       0.183 sec  (  0.4%)
Prescreening matrices       ....       0.112 sec  (  0.2%)
Two electron gradient       ....      46.935 sec  ( 90.7%)
XC gradient                 ....       4.373 sec  (  8.5%)
------------------------------------------------------------------------------
                         ORCA GEOMETRY RELAXATION STEP
------------------------------------------------------------------------------

Reading the OPT-File                    .... done
Getting information on internals        .... done
Copying old internal coords+grads       .... done
Making the new internal coordinates     .... (new redundants).... done
Validating the new internal coordinates .... (new redundants).... done
Calculating the B-matrix                .... done
Calculating the G,G- and P matrices     .... done
Transforming gradient to internals      .... done
Projecting the internal gradient        .... done
Number of atoms                         ....  21
Number of internal coordinates          ....  95
Current Energy                          ....  -689.116241989 Eh
Current gradient norm                   ....     0.042230748 Eh/bohr
Maximum allowed component of the step   ....  0.300
Current trust radius                    ....  0.300
Evaluating the initial hessian          ....  (Almloef) done
Projecting the Hessian                  .... done
Forming the augmented Hessian           .... done
Diagonalizing the augmented Hessian     .... done
Last element of RFO vector              ....  0.996773704
Lowest eigenvalues of augmented Hessian:
 -0.002785619  0.012920216  0.017258309  0.017258309  0.020453935
Length of the computed step             ....  0.080523005
The final length of the internal step   ....  0.080523005
Converting the step to cartesian space:
 Initial RMS(Int)=    0.0082614860
Transforming coordinates:
 Iter   0:  RMS(Cart)=    0.0322271741 RMS(Int)=    0.9116712202
 Iter   1:  RMS(Cart)=    0.0002934478 RMS(Int)=    0.0001383293
 Iter   2:  RMS(Cart)=    0.0000042323 RMS(Int)=    0.0000021032
 Iter   3:  RMS(Cart)=    0.0000001020 RMS(Int)=    0.0000000600
 Iter   4:  RMS(Cart)=    0.0000000018 RMS(Int)=    0.0000000014
done
Storing new coordinates                 .... done

                                .--------------------.
          ----------------------|Geometry convergence|-------------------------
          Item                value                   Tolerance       Converged
          ---------------------------------------------------------------------
          RMS gradient        0.0036174125            0.0001000000      NO
          MAX gradient        0.0187362640            0.0003000000      NO
          RMS step            0.0082614860            0.0020000000      NO
          MAX step            0.0398022222            0.0040000000      NO
          ........................................................
          Max(Bonds)      0.0211      Max(Angles)    0.95
          Max(Dihed)        0.15      Max(Improp)    0.00
          ---------------------------------------------------------------------

The optimization has not yet converged - more geometry cycles are needed


    ---------------------------------------------------------------------------
                         Redundant Internal Coordinates
                            (Angstroem and degrees)

        Definition                    Value    dE/dq     Step     New-Value
    ----------------------------------------------------------------------------
     1. B(H   1,C   0)                1.0964 -0.006245  0.0093    1.1058   
     2. B(O   2,C   0)                1.4054  0.002624 -0.0026    1.4028   
     3. B(C   3,O   2)                1.4065  0.006253 -0.0062    1.4002   
     4. B(C   4,C   3)                1.4995 -0.006488  0.0082    1.5076   
     5. B(C   5,C   4)                1.3897 -0.005814  0.0049    1.3946   
     6. B(C   6,C   5)                1.3814 -0.003964  0.0032    1.3846   
     7. B(C   7,C   6)                1.3875 -0.002544  0.0021    1.3896   
     8. B(C   8,C   7)                1.3762 -0.007801  0.0063    1.3824   
     9. B(C   9,C   8)                1.3957 -0.003054  0.0027    1.3984   
    10. B(C   9,C   4)                1.4037 -0.007029  0.0063    1.4100   
    11. B(N  10,C   9)                1.4387 -0.018736  0.0211    1.4597   
    12. B(O  11,N  10)                1.2130  0.001639 -0.0009    1.2121   
    13. B(O  12,N  10)                1.2150  0.000176 -0.0001    1.2149   
    14. B(H  13,C   8)                1.0795 -0.007227  0.0101    1.0896   
    15. B(H  14,C   7)                1.0776 -0.009523  0.0133    1.0909   
    16. B(F  15,C   6)                1.3398  0.009295 -0.0078    1.3320   
    17. B(H  16,C   5)                1.0771 -0.009143  0.0127    1.0898   
    18. B(H  17,C   3)                1.1025 -0.002144  0.0033    1.1058   
    19. B(H  18,C   3)                1.1025 -0.002158  0.0033    1.1058   
    20. B(H  19,C   0)                1.0878 -0.006740  0.0098    1.0976   
    21. B(H  20,C   0)                1.0964 -0.006285  0.0094    1.1058   
    22. A(H  19,C   0,H  20)          109.55  0.001817   -0.31    109.23   
    23. A(H   1,C   0,H  20)          108.70  0.001151   -0.24    108.47   
    24. A(H   1,C   0,O   2)          111.27 -0.000734    0.14    111.41   
    25. A(O   2,C   0,H  19)          106.46 -0.003344    0.59    107.05   
    26. A(H   1,C   0,H  19)          109.54  0.001812   -0.31    109.23   
    27. A(O   2,C   0,H  20)          111.29 -0.000675    0.13    111.42   
    28. A(C   0,O   2,C   3)          112.50 -0.001769    0.25    112.75   
    29. A(C   4,C   3,H  18)          109.63 -0.001285    0.15    109.78   
    30. A(C   4,C   3,H  17)          109.60 -0.001278    0.15    109.76   
    31. A(O   2,C   3,H  17)          110.33 -0.002522    0.43    110.76   
    32. A(O   2,C   3,H  18)          110.34 -0.002508    0.43    110.77   
    33. A(O   2,C   3,C   4)          110.49  0.006042   -0.93    109.56   
    34. A(H  17,C   3,H  18)          106.36  0.001315   -0.19    106.17   
    35. A(C   5,C   4,C   9)          117.73  0.001629   -0.22    117.52   
    36. A(C   3,C   4,C   5)          118.66  0.005166   -0.74    117.92   
    37. A(C   3,C   4,C   9)          123.61 -0.006795    0.95    124.56   
    38. A(C   6,C   5,H  16)          120.43  0.000288   -0.04    120.39   
    39. A(C   4,C   5,C   6)          120.38 -0.000411    0.05    120.43   
    40. A(C   4,C   5,H  16)          119.19  0.000123   -0.01    119.17   
    41. A(C   5,C   6,C   7)          122.19 -0.000963    0.12    122.31   
    42. A(C   7,C   6,F  15)          118.95  0.000445   -0.05    118.90   
    43. A(C   5,C   6,F  15)          118.85  0.000518   -0.06    118.79   
    44. A(C   6,C   7,C   8)          117.88  0.000042   -0.01    117.87   
    45. A(C   8,C   7,H  14)          121.75 -0.000374    0.06    121.81   
    46. A(C   6,C   7,H  14)          120.37  0.000332   -0.05    120.31   
    47. A(C   7,C   8,C   9)          120.91  0.000954   -0.12    120.78   
    48. A(C   9,C   8,H  13)          118.23 -0.000169    0.01    118.25   
    49. A(C   7,C   8,H  13)          120.86 -0.000785    0.11    120.97   
    50. A(C   8,C   9,N  10)          116.55  0.000240   -0.04    116.51   
    51. A(C   4,C   9,N  10)          122.55  0.001011   -0.14    122.41   
    52. A(C   4,C   9,C   8)          120.90 -0.001251    0.18    121.08   
    53. A(C   9,N  10,O  12)          118.53  0.001477   -0.20    118.32   
    54. A(C   9,N  10,O  11)          117.61 -0.003581    0.46    118.07   
    55. A(O  11,N  10,O  12)          123.86  0.002104   -0.25    123.61   
    56. D(C   3,O   2,C   0,H  20)    -60.76 -0.000247    0.07    -60.68   
    57. D(C   3,O   2,C   0,H   1)     60.65  0.000246   -0.05     60.60   
    58. D(C   3,O   2,C   0,H  19)    179.93 -0.000019    0.02    179.95   
    59. D(H  17,C   3,O   2,C   0)    -58.62  0.000718   -0.14    -58.76   
    60. D(C   4,C   3,O   2,C   0)   -179.99 -0.000002    0.00   -179.98   
    61. D(H  18,C   3,O   2,C   0)     58.62 -0.000724    0.15     58.77   
    62. D(C   5,C   4,C   3,O   2)      0.14 -0.000004   -0.00      0.14   
    63. D(C   9,C   4,C   3,H  17)     58.35  0.000061   -0.03     58.32   
    64. D(C   9,C   4,C   3,H  18)    -58.04 -0.000054    0.02    -58.02   
    65. D(C   5,C   4,C   3,H  17)   -121.66  0.000062   -0.03   -121.69   
    66. D(C   5,C   4,C   3,H  18)    121.96 -0.000053    0.02    121.98   
    67. D(C   9,C   4,C   3,O   2)   -179.85 -0.000004   -0.00   -179.86   
    68. D(H  16,C   5,C   4,C   3)     -0.01  0.000002   -0.00     -0.02   
    69. D(C   6,C   5,C   4,C   9)     -0.01  0.000002   -0.00     -0.02   
    70. D(C   6,C   5,C   4,C   3)    179.99  0.000002   -0.00    179.99   
    71. D(H  16,C   5,C   4,C   9)    179.98  0.000002   -0.00    179.98   
    72. D(F  15,C   6,C   5,H  16)      0.01  0.000003   -0.01      0.01   
    73. D(F  15,C   6,C   5,C   4)   -179.99  0.000003   -0.01   -180.00   
    74. D(C   7,C   6,C   5,H  16)    180.00 -0.000006    0.01    180.01   
    75. D(C   7,C   6,C   5,C   4)     -0.01 -0.000006    0.01      0.01   
    76. D(H  14,C   7,C   6,F  15)      0.01 -0.000001    0.00      0.01   
    77. D(H  14,C   7,C   6,C   5)   -179.98  0.000008   -0.01   -179.99   
    78. D(C   8,C   7,C   6,F  15)   -180.00 -0.000005    0.01   -179.99   
    79. D(C   8,C   7,C   6,C   5)      0.02  0.000004   -0.01      0.01   
    80. D(H  13,C   8,C   7,H  14)     -0.02 -0.000002    0.00     -0.02   
    81. D(H  13,C   8,C   7,C   6)    179.99  0.000001   -0.00    179.98   
    82. D(C   9,C   8,C   7,H  14)    179.98 -0.000003    0.01    179.99   
    83. D(C   9,C   8,C   7,C   6)     -0.01  0.000000   -0.00     -0.01   
    84. D(N  10,C   9,C   4,C   3)      0.03  0.000008   -0.02      0.01   
    85. D(C   8,C   9,C   4,C   5)      0.02  0.000003   -0.01      0.01   
    86. D(C   8,C   9,C   4,C   3)   -179.99  0.000004   -0.01   -179.99   
    87. D(N  10,C   9,C   8,H  13)     -0.02 -0.000009    0.02      0.00   
    88. D(N  10,C   9,C   8,C   7)    179.98 -0.000008    0.02    180.00   
    89. D(C   4,C   9,C   8,H  13)    180.00 -0.000005    0.01    180.00   
    90. D(C   4,C   9,C   8,C   7)     -0.00 -0.000004    0.01      0.00   
    91. D(N  10,C   9,C   4,C   5)   -179.97  0.000007   -0.02   -179.98   
    92. D(O  12,N  10,C   9,C   8)    179.65  0.000004   -0.01    179.64   
    93. D(O  12,N  10,C   9,C   4)     -0.37 -0.000000   -0.00     -0.37   
    94. D(O  11,N  10,C   9,C   8)     -0.35  0.000003   -0.01     -0.36   
    95. D(O  11,N  10,C   9,C   4)    179.64 -0.000001    0.00    179.64   
    ----------------------------------------------------------------------------

         *************************************************************
         *                GEOMETRY OPTIMIZATION CYCLE   2            *
         *************************************************************
---------------------------------
CARTESIAN COORDINATES (ANGSTROEM)
---------------------------------
  C     -3.364777   -2.188267    0.001868
  H     -3.869729   -1.787263   -0.896437
  O     -1.996997   -1.876967    0.002257
  C     -1.755665   -0.497712   -0.000929
  C     -0.269318   -0.245394   -0.000687
  C      0.580692   -1.350971   -0.000486
  C      1.954596   -1.179359   -0.000493
  C      2.546080    0.078088   -0.000588
  C      1.715345    1.183078   -0.000447
  C      0.325017    1.033224   -0.000528
  N     -0.462760    2.262157   -0.000348
  O      0.129880    3.319497    0.006556
  O     -1.674189    2.170297   -0.007222
  H      2.125175    2.192687   -0.000244
  H      3.632605    0.175489   -0.000747
  F      2.735824   -2.258170   -0.000363
  H      0.150119   -2.352158   -0.000258
  H     -2.215505   -0.021327   -0.886533
  H     -2.216920   -0.016986    0.881585
  H     -3.445669   -3.282850    0.003638
  H     -3.871103   -1.784194    0.898008

----------------------------
CARTESIAN COORDINATES (A.U.)
----------------------------
  NO LB      ZA    FRAG     MASS         X           Y           Z
   0 C     6.0000    0    12.011   -6.358508   -4.135224    0.003530
   1 H     1.0000    0     1.008   -7.312727   -3.377438   -1.694021
   2 O     8.0000    0    15.999   -3.773777   -3.546954    0.004264
   3 C     6.0000    0    12.011   -3.317726   -0.940540   -0.001755
   4 C     6.0000    0    12.011   -0.508938   -0.463728   -0.001299
   5 C     6.0000    0    12.011    1.097348   -2.552965   -0.000919
   6 C     6.0000    0    12.011    3.693651   -2.228666   -0.000932
   7 C     6.0000    0    12.011    4.811394    0.147565   -0.001112
   8 C     6.0000    0    12.011    3.241533    2.235694   -0.000845
   9 C     6.0000    0    12.011    0.614193    1.952511   -0.000998
  10 N     7.0000    0    14.007   -0.874490    4.274858   -0.000658
  11 O     8.0000    0    15.999    0.245438    6.272940    0.012389
  12 O     8.0000    0    15.999   -3.163759    4.101266   -0.013648
  13 H     1.0000    0     1.008    4.015998    4.143577   -0.000462
  14 H     1.0000    0     1.008    6.864628    0.331627   -0.001412
  15 F     9.0000    0    18.998    5.169957   -4.267322   -0.000685
  16 H     1.0000    0     1.008    0.283684   -4.444934   -0.000488
[...]
 219   0.0000       3.873546       105.4045 
 220   0.0000       3.882932       105.6600 
 221   0.0000       3.983982       108.4097 

                    ********************************
                    * MULLIKEN POPULATION ANALYSIS *
                    ********************************

-----------------------
MULLIKEN ATOMIC CHARGES
-----------------------
   0 C :    0.145171
   1 H :    0.024414
   2 O :   -0.408474
   3 C :    0.314677
   4 C :   -0.154117
   5 C :   -0.123999
   6 C :    0.347137
   7 C :   -0.089432
   8 C :   -0.031236
   9 C :    0.118390
  10 N :    0.240413
  11 O :   -0.242120
  12 O :   -0.255059
  13 H :    0.054554
  14 H :    0.044438
  15 F :   -0.187378
  16 H :    0.051056
  17 H :    0.038324
  18 H :    0.038121
  19 H :    0.050690
  20 H :    0.024428
Sum of atomic charges:   -0.0000000

--------------------------------
MULLIKEN REDUCED ORBITAL CHARGES
--------------------------------
  0 C s       :     3.022197  s :     3.022197
      pz      :     1.025911  p :     2.776825
      px      :     0.722729
      py      :     1.028185
      dz2     :     0.008441  d :     0.055807
      dxz     :     0.017359
      dyz     :     0.003124
      dx2y2   :     0.017019
      dxy     :     0.009864
  1 H s       :     0.953446  s :     0.953446
      pz      :     0.011492  p :     0.022139
      px      :     0.004874
      py      :     0.005773
  2 O s       :     3.756791  s :     3.756791
      pz      :     1.876025  p :     4.634968
      px      :     1.393264
      py      :     1.365678
      dz2     :     0.002393  d :     0.016715
      dxz     :     0.001923
      dyz     :     0.002019
      dx2y2   :     0.007688
      dxy     :     0.002692
  3 C s       :     2.892568  s :     2.892568
      pz      :     1.044700  p :     2.728883
      px      :     0.965888
      py      :     0.718294
      dz2     :     0.009058  d :     0.063872
      dxz     :     0.005877
      dyz     :     0.017799
      dx2y2   :     0.019318
      dxy     :     0.011820
  4 C s       :     3.100680  s :     3.100680
      pz      :     0.937108  p :     3.011620
      px      :     1.045800
      py      :     1.028712
      dz2     :     0.003113  d :     0.041817
      dxz     :     0.007396
      dyz     :     0.007727
      dx2y2   :     0.012469
      dxy     :     0.011111
  5 C s       :     3.330473  s :     3.330473
      pz      :     1.020530  p :     2.761887
      px      :     0.851287
      py      :     0.890070
      dz2     :     0.002725  d :     0.031638
      dxz     :     0.005380
      dyz     :     0.003355
      dx2y2   :     0.011550
      dxy     :     0.008628
  6 C s       :     2.957297  s :     2.957297
      pz      :     0.951388  p :     2.607810
      px      :     0.877786
      py      :     0.778635
      dz2     :     0.006146  d :     0.087756
      dxz     :     0.011432
      dyz     :     0.014295
      dx2y2   :     0.025895
      dxy     :     0.029988
  7 C s       :     3.224693  s :     3.224693
      pz      :     1.037148  p :     2.831917
      px      :     0.865700
      py      :     0.929068
      dz2     :     0.002679  d :     0.032823
      dxz     :     0.003107
      dyz     :     0.005844
      dx2y2   :     0.011370
      dxy     :     0.009823
  8 C s       :     3.253450  s :     3.253450
      pz      :     0.923120  p :     2.742665
      px      :     0.975267
      py      :     0.844279
      dz2     :     0.002675  d :     0.035120
      dxz     :     0.007505
      dyz     :     0.003727
      dx2y2   :     0.012312
      dxy     :     0.008902
  9 C s       :     3.026329  s :     3.026329
      pz      :     1.123126  p :     2.808204
      px      :     0.812886
      py      :     0.872192
      dz2     :     0.004138  d :     0.047077
      dxz     :     0.006208
      dyz     :     0.005296
      dx2y2   :     0.012439
      dxy     :     0.018995
 10 N s       :     3.300986  s :     3.300986
      pz      :     1.153387  p :     3.335331
      px      :     1.062186
      py      :     1.119758
      dz2     :     0.004767  d :     0.123270
      dxz     :     0.023443
      dyz     :     0.014533
      dx2y2   :     0.037122
      dxy     :     0.043405
 11 O s       :     3.852939  s :     3.852939
      pz      :     1.425800  p :     4.365821
      px      :     1.664198
      py      :     1.275823
      dz2     :     0.002777  d :     0.023360
      dxz     :     0.001605
      dyz     :     0.005686
      dx2y2   :     0.005650
      dxy     :     0.007642
 12 O s       :     3.861064  s :     3.861064
      pz      :     1.431946  p :     4.371131
      px      :     1.103584
      py      :     1.835602
      dz2     :     0.002741  d :     0.022864
      dxz     :     0.007019
      dyz     :     0.000087
      dx2y2   :     0.008454
      dxy     :     0.004562
 13 H s       :     0.921471  s :     0.921471
      pz      :     0.003958  p :     0.023975
      px      :     0.004631
      py      :     0.015386
 14 H s       :     0.932315  s :     0.932315
      pz      :     0.004557  p :     0.023247
      px      :     0.015623
      py      :     0.003066
 15 F s       :     3.885872  s :     3.885872
      pz      :     1.889540  p :     5.292871
      px      :     1.772479
      py      :     1.630852
      dz2     :     0.001162  d :     0.008635
      dxz     :     0.000732
      dyz     :     0.001390
      dx2y2   :     0.002003
      dxy     :     0.003347
 16 H s       :     0.924669  s :     0.924669
      pz      :     0.004280  p :     0.024275
      px      :     0.006115
      py      :     0.013880
 17 H s       :     0.939719  s :     0.939719
      pz      :     0.011222  p :     0.021957
      px      :     0.005518
      py      :     0.005217
 18 H s       :     0.939930  s :     0.939930
      pz      :     0.011171  p :     0.021949
      px      :     0.005527
      py      :     0.005251
 19 H s       :     0.927437  s :     0.927437
      pz      :     0.005075  p :     0.021874
      px      :     0.002036
      py      :     0.014762
 20 H s       :     0.953437  s :     0.953437
      pz      :     0.011446  p :     0.022135
      px      :     0.004889
      py      :     0.005800


                     *******************************
                     * LOEWDIN POPULATION ANALYSIS *
                     *******************************

----------------------
LOEWDIN ATOMIC CHARGES
----------------------
   0 C :    0.064236
   1 H :    0.011456
   2 O :   -0.167529
   3 C :    0.070239
   4 C :    0.000244
   5 C :   -0.049553
   6 C :    0.103607
   7 C :   -0.058762
   8 C :    0.007794
   9 C :   -0.050283
  10 N :    0.283886
  11 O :   -0.201639
  12 O :   -0.202568
  13 H :    0.050447
  14 H :    0.048318
  15 F :   -0.050313
  16 H :    0.051037
  17 H :    0.025468
  18 H :    0.025392
  19 H :    0.027052
  20 H :    0.011471

-------------------------------
LOEWDIN REDUCED ORBITAL CHARGES
-------------------------------
  0 C s       :     2.844689  s :     2.844689
      pz      :     1.074570  p :     2.962091
      px      :     0.821692
      py      :     1.065829
      dz2     :     0.019697  d :     0.128984
      dxz     :     0.041766
      dyz     :     0.007220
      dx2y2   :     0.040092
      dxy     :     0.020209
  1 H s       :     0.925256  s :     0.925256
      pz      :     0.032162  p :     0.063288
      px      :     0.015732
      py      :     0.015394
  2 O s       :     3.441061  s :     3.441061
      pz      :     1.860144  p :     4.696085
      px      :     1.425486
      py      :     1.410455
      dz2     :     0.003915  d :     0.030383
      dxz     :     0.002971
      dyz     :     0.003232
      dx2y2   :     0.014646
      dxy     :     0.005619
  3 C s       :     2.831898  s :     2.831898
      pz      :     1.084713  p :     2.948683
      px      :     1.015145
      py      :     0.848825
      dz2     :     0.021322  d :     0.149180
      dxz     :     0.013917
      dyz     :     0.041389
      dx2y2   :     0.046850
      dxy     :     0.025704
  4 C s       :     2.858506  s :     2.858506
      pz      :     0.913552  p :     3.037572
      px      :     1.056815
      py      :     1.067205
      dz2     :     0.007262  d :     0.103677
      dxz     :     0.012559
      dyz     :     0.015981
      dx2y2   :     0.035255
      dxy     :     0.032621
  5 C s       :     2.857569  s :     2.857569
      pz      :     1.006005  p :     3.106534
      px      :     1.040500
      py      :     1.060029
      dz2     :     0.006662  d :     0.085450
      dxz     :     0.010888
      dyz     :     0.005804
      dx2y2   :     0.034313
      dxy     :     0.027782
  6 C s       :     2.848142  s :     2.848142
      pz      :     0.938307  p :     2.850342
      px      :     1.007505
      py      :     0.904531
      dz2     :     0.013401  d :     0.197908
      dxz     :     0.022075
      dyz     :     0.027293
      dx2y2   :     0.065178
      dxy     :     0.069962
  7 C s       :     2.858465  s :     2.858465
      pz      :     1.011992  p :     3.112833
      px      :     1.048343
      py      :     1.052498
      dz2     :     0.006702  d :     0.087465
      dxz     :     0.004827
      dyz     :     0.012153
      dx2y2   :     0.033594
      dxy     :     0.030188
  8 C s       :     2.858999  s :     2.858999
      pz      :     0.919780  p :     3.042057
      px      :     1.054988
      py      :     1.067289
      dz2     :     0.006255  d :     0.091150
      dxz     :     0.015906
      dyz     :     0.006558
      dx2y2   :     0.035291
      dxy     :     0.027140
  9 C s       :     2.857405  s :     2.857405
      pz      :     1.094229  p :     3.072690
      px      :     1.027830
      py      :     0.950631
      dz2     :     0.009652  d :     0.120188
      dxz     :     0.012320
      dyz     :     0.010678
      dx2y2   :     0.037187
      dxy     :     0.050351
 10 N s       :     3.044667  s :     3.044667
      pz      :     1.103818  p :     3.417339
      px      :     1.143704
      py      :     1.169817
      dz2     :     0.012032  d :     0.254107
      dxz     :     0.040013
      dyz     :     0.024463
      dx2y2   :     0.082195
      dxy     :     0.095404
 11 O s       :     3.606629  s :     3.606629
      pz      :     1.434004  p :     4.550442
      px      :     1.698035
      py      :     1.418404
      dz2     :     0.006698  d :     0.044568
      dxz     :     0.002330
      dyz     :     0.007550
      dx2y2   :     0.011391
      dxy     :     0.016600
 12 O s       :     3.606197  s :     3.606197
      pz      :     1.440684  p :     4.552696
      px      :     1.289452
      py      :     1.822561
      dz2     :     0.006633  d :     0.043675
      dxz     :     0.009498
      dyz     :     0.000139
      dx2y2   :     0.019986
      dxy     :     0.007418
 13 H s       :     0.876494  s :     0.876494
      pz      :     0.012486  p :     0.073059
      px      :     0.015905
      py      :     0.044667
 14 H s       :     0.882359  s :     0.882359
      pz      :     0.014884  p :     0.069323
      px      :     0.043847
      py      :     0.010591
 15 F s       :     3.713028  s :     3.713028
      pz      :     1.883011  p :     5.323862
      px      :     1.782396
      py      :     1.658455
      dz2     :     0.001944  d :     0.013422
      dxz     :     0.001000
      dyz     :     0.001903
      dx2y2   :     0.003055
      dxy     :     0.005520
 16 H s       :     0.874194  s :     0.874194
      pz      :     0.014644  p :     0.074769
      px      :     0.019505
      py      :     0.040620
 17 H s       :     0.907975  s :     0.907975
      pz      :     0.032193  p :     0.066557
      px      :     0.016961
      py      :     0.017404
 18 H s       :     0.908063  s :     0.908063
      pz      :     0.032035  p :     0.066545
      px      :     0.016989
      py      :     0.017522
 19 H s       :     0.910304  s :     0.910304
      pz      :     0.012384  p :     0.062644
      px      :     0.007582
      py      :     0.042679
 20 H s       :     0.925242  s :     0.925242
      pz      :     0.032031  p :     0.063287
      px      :     0.015779
      py      :     0.015476


                      *****************************
                      * MAYER POPULATION ANALYSIS *
                      *****************************

  NA   - Mulliken gross atomic population
  ZA   - Total nuclear charge
  QA   - Mulliken gross atomic charge
  VA   - Mayer's total valence
  BVA  - Mayer's bonded valence
  FA   - Mayer's free valence

  ATOM       NA         ZA         QA         VA         BVA        FA
  0 C      5.8548     6.0000     0.1452     3.9275     3.9275     0.0000
  1 H      0.9756     1.0000     0.0244     0.9878     0.9878     0.0000
  2 O      8.4085     8.0000    -0.4085     2.0804     2.0804    -0.0000
  3 C      5.6853     6.0000     0.3147     3.9097     3.9097    -0.0000
  4 C      6.1541     6.0000    -0.1541     3.9213     3.9213    -0.0000
  5 C      6.1240     6.0000    -0.1240     3.8527     3.8527    -0.0000
  6 C      5.6529     6.0000     0.3471     3.8207     3.8207     0.0000
  7 C      6.0894     6.0000    -0.0894     3.7991     3.7991    -0.0000
  8 C      6.0312     6.0000    -0.0312     3.8565     3.8565     0.0000
  9 C      5.8816     6.0000     0.1184     3.8555     3.8555     0.0000
 10 N      6.7596     7.0000     0.2404     3.9828     3.9828    -0.0000
 11 O      8.2421     8.0000    -0.2421     1.9598     1.9598     0.0000
 12 O      8.2551     8.0000    -0.2551     1.9389     1.9389     0.0000
 13 H      0.9454     1.0000     0.0546     1.0210     1.0210    -0.0000
 14 H      0.9556     1.0000     0.0444     0.9965     0.9965     0.0000
 15 F      9.1874     9.0000    -0.1874     1.1714     1.1714    -0.0000
 16 H      0.9489     1.0000     0.0511     1.0295     1.0295     0.0000
 17 H      0.9617     1.0000     0.0383     1.0038     1.0038     0.0000
 18 H      0.9619     1.0000     0.0381     1.0038     1.0038     0.0000
 19 H      0.9493     1.0000     0.0507     0.9891     0.9891     0.0000
 20 H      0.9756     1.0000     0.0244     0.9878     0.9878    -0.0000

  Mayer bond orders larger than 0.100000
B(  0-C ,  1-H ) :   0.9690 B(  0-C ,  2-O ) :   0.9705 B(  0-C , 19-H ) :   0.9831 
B(  0-C , 20-H ) :   0.9690 B(  2-O ,  3-C ) :   1.0182 B(  3-C ,  4-C ) :   0.9995 
B(  3-C , 17-H ) :   0.9221 B(  3-C , 18-H ) :   0.9222 B(  4-C ,  5-C ) :   1.3929 
B(  4-C ,  9-C ) :   1.3874 B(  5-C ,  6-C ) :   1.3124 B(  5-C , 16-H ) :   0.9944 
B(  6-C ,  7-C ) :   1.3485 B(  6-C , 15-F ) :   1.0816 B(  7-C ,  8-C ) :   1.3569 
B(  7-C , 14-H ) :   0.9928 B(  8-C ,  9-C ) :   1.3922 B(  8-C , 13-H ) :   0.9775 
B(  9-C , 10-N ) :   0.8597 B( 10-N , 11-O ) :   1.5688 B( 10-N , 12-O ) :   1.5213 
B( 11-O , 12-O ) :   0.2592 

-------
TIMINGS
-------

Total SCF time: 0 days 0 hours 1 min 1 sec 

Total time                  ....      61.065 sec
Sum of individual times     ....      60.859 sec  ( 99.7%)

Fock matrix formation       ....      59.375 sec  ( 97.2%)
  XC integration            ....       3.186 sec  (  5.4% of F)
    Basis function eval.    ....       1.028 sec  ( 32.3% of XC)
    Density eval.           ....       0.572 sec  ( 17.9% of XC)
    XC-Functional eval.     ....       0.813 sec  ( 25.5% of XC)
    XC-Potential eval.      ....       0.677 sec  ( 21.3% of XC)
Diagonalization             ....       0.006 sec  (  0.0%)
Density matrix formation    ....       0.005 sec  (  0.0%)
Population analysis         ....       0.005 sec  (  0.0%)
Initial guess               ....       0.005 sec  (  0.0%)
Orbital Transformation      ....       0.000 sec  (  0.0%)
Orbital Orthonormalization  ....       0.004 sec  (  0.0%)
DIIS solution               ....       0.001 sec  (  0.0%)
SOSCF solution              ....       0.020 sec  (  0.0%)
Grid generation             ....       1.441 sec  (  2.4%)


-------------------------------------------------------------------------------
                          DFT DISPERSION CORRECTION                            
                                                                               
                              DFTD3 V3.1  Rev 1                                
                              USING zero damping                               
-------------------------------------------------------------------------------
The omegaB97X-D3 functional is recognized. Fit by Chai et al.
Active option DFTDOPT                   ...         3   

molecular C6(AA) [au] = 4795.257971 


            DFT-D V3
 parameters
 s6 scaling factor         :     1.0000 
 rs6 scaling factor        :     1.2810 
 s8 scaling factor         :     1.0000 
 rs8 scaling factor        :     1.0940 
 Damping factor alpha6     :    14.0000 
 Damping factor alpha8     :    16.0000 
 ad hoc parameters k1-k3   :    16.0000     1.3333    -4.0000 

 Edisp/kcal,au: -4.452844657821  -0.007096058891 
 E6   /kcal   :  -1.962999349 
 E8   /kcal   :  -2.489845309 
 % E8         :  55.915835843 

-------------------------   ----------------
Dispersion correction           -0.007096059
-------------------------   ----------------


-------------------------   --------------------
FINAL SINGLE POINT ENERGY      -689.118063255848
-------------------------   --------------------

                                *** OPTIMIZATION RUN DONE ***

                            ***************************************
                            *     ORCA property calculations      *
                            ***************************************

                                    ---------------------
                                    Active property flags
                                    ---------------------
   (+) Dipole Moment


------------------------------------------------------------------------------
                       ORCA ELECTRIC PROPERTIES CALCULATION
------------------------------------------------------------------------------

Dipole Moment Calculation                       ... on
Quadrupole Moment Calculation                   ... off
Polarizability Calculation                      ... off
GBWName                                         ... 018473915.gbw
Electron density file                           ... 018473915.scfp
The origin for moment calculation is the CENTER OF MASS  = (-0.000140,  0.015818 -0.000235)

-------------
DIPOLE MOMENT
-------------
                                X             Y             Z
Electronic contribution:     11.70414       3.51960      -0.00208
Nuclear contribution   :    -11.71409      -4.34536       0.00099
                        -----------------------------------------
Total Dipole Moment    :     -0.00995      -0.82576      -0.00108
                        -----------------------------------------
Magnitude (a.u.)       :      0.82582
Magnitude (Debye)      :      2.09907



--------------------
Rotational spectrum 
--------------------
 
Rotational constants in cm-1:     0.026510     0.025272     0.013002 
Rotational constants in MHz :   794.749795   757.644566   389.782849 

 Dipole components along the rotational axes: 
x,y,z [a.u.] :    -0.036860     0.824996    -0.001095 
x,y,z [Debye]:    -0.093691     2.096973    -0.002783 

 

Timings for individual modules:

Sum of individual times         ...      975.182 sec (=  16.253 min)
GTO integral calculation        ...        3.263 sec (=   0.054 min)   0.3 %
SCF iterations                  ...      664.773 sec (=  11.080 min)  68.2 %
SCF Gradient evaluation         ...      305.435 sec (=   5.091 min)  31.3 %
Geometry relaxation             ...        1.711 sec (=   0.029 min)   0.2 %
                             ****ORCA TERMINATED NORMALLY****
TOTAL RUN TIME: 0 days 0 hours 16 minutes 15 seconds 929 msec
