
                                 *****************
                                 * O   R   C   A *
                                 *****************

           --- An Ab Initio, DFT and Semiempirical electronic structure package ---

                  #######################################################
                  #                        -***-                        #
                  #          Department of theory and spectroscopy      #
                  #               Directorship: Frank Neese             #
                  #        Max Planck Institute fuer Kohlenforschung    #
                  #                Kaiser Wilhelm Platz 1               #
                  #                 D-45470 Muelheim/Ruhr               #
                  #                      Germany                        #
                  #                                                     #
                  #                  All rights reserved                #
                  #                        -***-                        #
                  #######################################################


                         Program Version 4.2.0 -  RELEASE  -


 With contributions from (in alphabetic order):
   Daniel Aravena         : Magnetic Suceptibility
   Michael Atanasov       : Ab Initio Ligand Field Theory (pilot matlab implementation)
   Alexander A. Auer      : GIAO ZORA, VPT2
   Ute Becker             : Parallelization
   Giovanni Bistoni       : ED, misc. LED, open-shell LED, HFLED
   Martin Brehm           : Molecular dynamics
   Dmytro Bykov           : SCF Hessian
   Vijay G. Chilkuri      : MRCI spin determinant printing, contributions to CSF-ICE
   Dipayan Datta          : RHF DLPNO-CCSD density
   Achintya Kumar Dutta   : EOM-CC, STEOM-CC
   Dmitry Ganyushin       : Spin-Orbit,Spin-Spin,Magnetic field MRCI
   Miquel Garcia          : C-PCM Hessian, Gaussian charge scheme
   Yang Guo               : DLPNO-NEVPT2, CIM, IAO-localization
   Andreas Hansen         : Spin unrestricted coupled pair/coupled cluster methods
   Benjamin Helmich-Paris : CASSCF linear response (MC-RPA)
   Lee Huntington         : MR-EOM, pCC
   Robert Izsak           : Overlap fitted RIJCOSX, COSX-SCS-MP3, EOM
   Christian Kollmar      : KDIIS, OOCD, Brueckner-CCSD(T), CCSD density
   Simone Kossmann        : Meta GGA functionals, TD-DFT gradient, OOMP2, MP2 Hessian
   Martin Krupicka        : AUTO-CI
   Lucas Lang             : DCDCAS
   Dagmar Lenk            : GEPOL surface, SMD
   Dimitrios Liakos       : Extrapolation schemes; Compound Job, initial MDCI parallelization
   Dimitrios Manganas     : Further ROCIS development; embedding schemes
   Dimitrios Pantazis     : SARC Basis sets
   Taras Petrenko         : DFT Hessian,TD-DFT gradient, ASA, ECA, R-Raman, ABS, FL, XAS/XES, NRVS
   Peter Pinski           : DLPNO-MP2, DLPNO-MP2 Gradient
   Christoph Reimann      : Effective Core Potentials
   Marius Retegan         : Local ZFS, SOC
   Christoph Riplinger    : Optimizer, TS searches, QM/MM, DLPNO-CCSD(T), (RO)-DLPNO pert. Triples
   Tobias Risthaus        : Range-separated hybrids, TD-DFT gradient, RPA, STAB
   Michael Roemelt        : Original ROCIS implementation
   Masaaki Saitow         : Open-shell DLPNO-CCSD energy and density
   Barbara Sandhoefer     : DKH picture change effects
   Avijit Sen             : IP-ROCIS
   Kantharuban Sivalingam : CASSCF convergence, NEVPT2, FIC-MRCI
   Bernardo de Souza      : ESD, SOC TD-DFT
   Georgi Stoychev        : AutoAux, RI-MP2 NMR
   Willem Van den Heuvel  : Paramagnetic NMR
   Boris Wezisla          : Elementary symmetry handling
   Frank Wennmohs         : Technical directorship


 We gratefully acknowledge several colleagues who have allowed us to
 interface, adapt or use parts of their codes:
   Stefan Grimme, W. Hujo, H. Kruse,             : VdW corrections, initial TS optimization,
                  C. Bannwarth                     DFT functionals, gCP, sTDA/sTD-DF
   Ed Valeev, F. Pavosevic, A. Kumar             : LibInt (2-el integral package), F12 methods
   Garnet Chan, S. Sharma, J. Yang, R. Olivares  : DMRG
   Ulf Ekstrom                                   : XCFun DFT Library
   Mihaly Kallay                                 : mrcc  (arbitrary order and MRCC methods)
   Andreas Klamt, Michael Diedenhofen            : otool_cosmo (COSMO solvation model)
   Jiri Pittner, Ondrej Demel                    : Mk-CCSD
   Frank Weinhold                                : gennbo (NPA and NBO analysis)
   Christopher J. Cramer and Donald G. Truhlar   : smd solvation model
   Lars Goerigk                                  : TD-DFT with DH, B97 family of functionals
   V. Asgeirsson, H. Jonsson                     : NEB implementation
   FAccTs GmbH                                   : IRC, NEB, NEB-TS, Multilevel, MM, QM/MM, CI optimization
   S Lehtola, MJT Oliveira, MAL Marques          : LibXC Library


 Your calculation uses the libint2 library for the computation of 2-el integrals
 For citations please refer to: http://libint.valeyev.net

 Your ORCA version has been built with support for libXC version: 4.2.3
 For citations please refer to: https://tddft.org/programs/libxc/

 This ORCA versions uses:
   CBLAS   interface :  Fast vector & matrix operations
   LAPACKE interface :  Fast linear algebra routines
   SCALAPACK package :  Parallel linear algebra routines


Your calculation utilizes the atom-pairwise dispersion correction
with the zero-damping scheme (D30)
Cite in your paper:
S.Grimme, J.Antony, S.Ehrlich and H.Krieg, J.Chem.Phys., 132, (2010), 154104 
   

XCFun DFT library Copyright 2009-2010 Ulf Ekstrom and contributors.
See http://admol.org/xcfun for more information. This is free soft-
ware; see the source code for copying conditions. There is ABSOLUTELY
NO WARRANTY; not even for MERCHANTABILITY or FITNESS FOR A PARTICULAR
PURPOSE. For details see the documentation. Scientific users of this 
library should cite U. Ekstrom, L. Visscher, R. Bast, A. J. Thorvald-
sen and K. Ruud; J.Chem.Theor.Comp. 2010, DOI: 10.1021/ct100117s
XCFun Version 0.99 
----- Orbital basis set information -----
Your calculation utilizes the basis: def2-SVP
   F. Weigend and R. Ahlrichs, Phys. Chem. Chem. Phys. 7, 3297 (2005).

================================================================================
                                        WARNINGS
                       Please study these warnings very carefully!
================================================================================


WARNING: Geometry Optimization
  ===> : Switching off AutoStart
         For restart on a previous wavefunction, please use MOREAD

INFO   : the flag for use of LIBINT has been found!

================================================================================
                                       INPUT FILE
================================================================================
NAME = 019016745.inp
|  1> # ORCA input file
|  2> # -52.77852112
|  3> ! wB97X-D3 def2-SVP Opt
|  4> * xyz 0 1
|  5>    C        0.23560         2.46070        -0.80070
|  6>    C        1.71330         2.09180        -0.80670
|  7>    C        2.22860         1.81020         0.60260
|  8>    C        3.63010         1.19220         0.59470
|  9>    O        3.74470        -0.03320        -0.09260
| 10>    C        3.13410        -1.14790         0.52810
| 11>    C        1.67280        -1.29050         0.18680
| 12>    C        0.67850        -1.29450         1.14810
| 13>    N       -0.61700        -1.34630         0.87270
| 14>    C       -0.99050        -1.40510        -0.39570
| 15>    C       -0.06970        -1.43910        -1.45310
| 16>    C        1.26950        -1.37810        -1.14840
| 17>    H        2.01710        -1.38720        -1.92810
| 18>    H       -0.43100        -1.50310        -2.46610
| 19>    O       -2.29460        -1.44340        -0.70700
| 20>    C       -3.22440        -1.32870         0.36140
| 21>    C       -3.32820         0.10050         0.89240
| 22>    C       -3.75390         1.08690        -0.19280
| 23>    C       -3.78760         2.51740         0.32920
| 24>    H       -4.48780         2.60510         1.15740
| 25>    H       -4.09610         3.20350        -0.45600
| 26>    H       -2.80280         2.81850         0.67960
| 27>    H       -3.05540         1.02070        -1.02940
| 28>    H       -4.74300         0.80910        -0.56450
| 29>    H       -2.35720         0.39170         1.29650
| 30>    H       -4.05130         0.10900         1.70990
| 31>    H       -2.93340        -2.00660         1.17040
| 32>    H       -4.17640        -1.64930        -0.06890
| 33>    H        0.91650        -1.24490         2.20420
| 34>    H        3.68150        -2.01820         0.14750
| 35>    H        3.26580        -1.09960         1.61840
| 36>    H        4.32350         1.85910         0.07420
| 37>    H        3.97630         1.06710         1.63320
| 38>    H        2.27150         2.73770         1.17780
| 39>    H        1.53760         1.13530         1.11060
| 40>    H        2.29640         2.90180        -1.25040
| 41>    H        1.86150         1.20140        -1.42000
| 42>    H       -0.35720         1.63750        -0.40660
| 43>    H       -0.10990         2.67850        -1.80850
| 44>    H        0.06190         3.33800        -0.18050
| 45> *
| 46> 
| 47>                          ****END OF INPUT****
================================================================================

                       *****************************
                       * Geometry Optimization Run *
                       *****************************

Geometry optimization settings:
Update method            Update   .... BFGS
Choice of coordinates    CoordSys .... Z-matrix Internals
Initial Hessian          InHess   .... Almoef's Model

Convergence Tolerances:
Energy Change            TolE     ....  5.0000e-06 Eh
Max. Gradient            TolMAXG  ....  3.0000e-04 Eh/bohr
RMS Gradient             TolRMSG  ....  1.0000e-04 Eh/bohr
Max. Displacement        TolMAXD  ....  4.0000e-03 bohr
RMS Displacement         TolRMSD  ....  2.0000e-03 bohr
Strict Convergence                ....  False
------------------------------------------------------------------------------
                        ORCA OPTIMIZATION COORDINATE SETUP
------------------------------------------------------------------------------

The optimization will be done in new redundant internal coordinates
Making redundant internal coordinates   ...  (new redundants) done
Evaluating the initial hessian          ...  (Almloef) done
Evaluating the coordinates              ...  done
Calculating the B-matrix                .... done
Calculating the G-matrix                .... done
Diagonalizing the G-matrix              .... done
Small eigenvalue found = 1.810e-03
Small eigenvalue found = 4.106e-03
Small eigenvalue found = 4.945e-03
Small eigenvalue found = 8.095e-03
Small eigenvalue found = 1.628e-02
Small eigenvalue found = 2.278e-02
The first mode is                       ....   90
The number of degrees of freedom        ....  114

    -----------------------------------------------------------------
                    Redundant Internal Coordinates


    -----------------------------------------------------------------
         Definition                    Initial Value    Approx d2E/dq
    -----------------------------------------------------------------
      1. B(C   1,C   0)                  1.5231         0.383217   
      2. B(C   2,C   1)                  1.5267         0.378065   
      3. B(C   3,C   2)                  1.5317         0.371212   
      4. B(O   4,C   3)                  1.4097         0.520621   
      5. B(C   5,O   4)                  1.4144         0.511533   
      6. B(C   6,C   5)                  1.5074         0.405932   
      7. B(C   7,C   6)                  1.3830         0.641023   
      8. B(N   8,C   7)                  1.3255         0.709320   
      9. B(C   9,N   8)                  1.3236         0.714305   
     10. B(C  10,C   9)                  1.4025         0.596663   
     11. B(C  11,C  10)                  1.3748         0.660726   
     12. B(C  11,C   6)                  1.3975         0.607755   
     13. B(H  12,C  11)                  1.0802         0.373244   
     14. B(H  13,C  10)                  1.0774         0.377152   
     15. B(O  14,C   9)                  1.3413         0.669258   
     16. B(C  15,O  14)                  1.4210         0.499414   
     17. B(C  16,C  15)                  1.5282         0.376074   
     18. B(C  17,C  16)                  1.5270         0.377653   
     19. B(C  18,C  17)                  1.5231         0.383111   
     20. B(H  19,C  18)                  1.0881         0.362668   
     21. B(H  20,C  18)                  1.0874         0.363552   
     22. B(H  21,C  18)                  1.0878         0.363044   
     23. B(H  22,C  17)                  1.0919         0.357632   
     24. B(H  23,C  17)                  1.0925         0.356750   
     25. B(H  24,C  16)                  1.0913         0.358385   
     26. B(H  25,C  16)                  1.0914         0.358194   
     27. B(H  26,C  15)                  1.0949         0.353733   
     28. B(H  27,C  15)                  1.0928         0.356394   
     29. B(H  28,C   7)                  1.0837         0.368503   
     30. B(H  29,C   5)                  1.0963         0.351831   
     31. B(H  30,C   5)                  1.0993         0.348022   
     32. B(H  31,C   3)                  1.0938         0.355060   
     33. B(H  32,C   3)                  1.1018         0.344810   
     34. B(H  33,C   2)                  1.0922         0.357171   
     35. B(H  34,C   2)                  1.0913         0.358324   
     36. B(H  35,C   1)                  1.0922         0.357157   
     37. B(H  36,C   1)                  1.0913         0.358398   
     38. B(H  37,H  22)                  2.8370         0.000113   
     39. B(H  37,C   0)                  1.0883         0.362363   
     40. B(H  38,C   0)                  1.0874         0.363538   
     41. B(H  39,C   0)                  1.0883         0.362308   
     42. A(H  37,C   0,H  39)          108.4479         0.291406   
     43. A(C   1,C   0,H  38)          110.6786         0.326190   
     44. A(H  37,C   0,H  38)          108.3035         0.291561   
     45. A(C   1,C   0,H  37)          110.2855         0.326016   
     46. A(H  38,C   0,H  39)          108.4197         0.291554   
     47. A(C   1,C   0,H  39)          110.6303         0.326008   
     48. A(C   0,C   1,C   2)          111.6231         0.365686   
     49. A(C   2,C   1,H  35)          109.3647         0.324518   
     50. A(C   2,C   1,H  36)          108.8104         0.324703   
     51. A(C   0,C   1,H  35)          109.8731         0.325241   
     52. A(C   0,C   1,H  36)          109.3656         0.325426   
     53. A(H  35,C   1,H  36)          107.7150         0.290249   
     54. A(C   3,C   2,H  33)          108.0228         0.323547   
     55. A(C   1,C   2,H  34)          109.2708         0.324692   
     56. A(C   1,C   2,C   3)          112.2393         0.363700   
     57. A(C   1,C   2,H  33)          110.0445         0.324520   
     58. A(C   3,C   2,H  34)          109.4039         0.323718   
     59. A(H  33,C   2,H  34)          107.7508         0.290241   
     60. A(C   2,C   3,O   4)          115.3172         0.381901   
     61. A(H  31,C   3,H  32)          108.5751         0.288230   
     62. A(O   4,C   3,H  31)          104.2678         0.339789   
     63. A(C   2,C   3,H  31)          109.6629         0.323233   
     64. A(C   2,C   3,H  32)          109.1744         0.321685   
     65. A(O   4,C   3,H  32)          109.5912         0.338131   
     66. A(C   3,O   4,C   5)          115.8503         0.401356   
     67. A(O   4,C   5,H  29)          104.9348         0.338275   
     68. A(C   6,C   5,H  30)          110.1736         0.326941   
     69. A(C   6,C   5,H  29)          109.2893         0.327528   
     70. A(O   4,C   5,C   6)          113.1839         0.386700   
     71. A(H  29,C   5,H  30)          108.6256         0.288237   
     72. A(O   4,C   5,H  30)          110.4198         0.337662   
     73. A(C   5,C   6,C   7)          122.6734         0.404899   
     74. A(C   7,C   6,C  11)          117.1564         0.435114   
     75. A(C   5,C   6,C  11)          120.1329         0.401111   
     76. A(C   6,C   7,N   8)          123.9435         0.444485   
     77. A(N   8,C   7,H  28)          114.7664         0.360246   
     78. A(C   6,C   7,H  28)          121.2878         0.356300   
     79. A(C   7,N   8,C   9)          118.4681         0.450304   
     80. A(C  10,C   9,O  14)          117.5583         0.434189   
     81. A(N   8,C   9,C  10)          122.5686         0.439316   
     82. A(N   8,C   9,O  14)          119.8716         0.445581   
     83. A(C   9,C  10,C  11)          118.1227         0.436044   
     84. A(C  11,C  10,H  13)          122.5263         0.359555   
     85. A(C   9,C  10,H  13)          119.3491         0.353381   
     86. A(C  10,C  11,H  12)          120.9180         0.358918   
     87. A(C   6,C  11,H  12)          119.3671         0.353861   
     88. A(C   6,C  11,C  10)          119.7123         0.437494   
     89. A(C   9,O  14,C  15)          117.3478         0.417837   
     90. A(H  26,C  15,H  27)          109.9282         0.289556   
     91. A(C  16,C  15,H  27)          110.6106         0.324123   
     92. A(O  14,C  15,H  27)          104.4946         0.337650   
     93. A(O  14,C  15,C  16)          112.4076         0.380013   
     94. A(C  16,C  15,H  26)          109.8992         0.323725   
     95. A(O  14,C  15,H  26)          109.3705         0.337229   
     96. A(C  15,C  16,C  17)          112.0934         0.364442   
     97. A(H  24,C  16,H  25)          108.0625         0.290379   
     98. A(C  17,C  16,H  25)          110.0330         0.324615   
     99. A(C  15,C  16,H  25)          108.2125         0.324391   
    100. A(C  17,C  16,H  24)          109.8055         0.324643   
    101. A(C  15,C  16,H  24)          108.5289         0.324420   
    102. A(C  18,C  17,H  22)          109.4927         0.325297   
    103. A(C  16,C  17,H  22)          109.0871         0.324531   
    104. A(C  16,C  17,C  18)          111.6715         0.365600   
    105. A(H  22,C  17,H  23)          107.6418         0.290100   
    106. A(C  18,C  17,H  23)          109.5950         0.325165   
    107. A(C  16,C  17,H  23)          109.2632         0.324399   
    108. A(H  20,C  18,H  21)          108.3486         0.291649   
    109. A(H  19,C  18,H  21)          108.3670         0.291537   
    110. A(C  17,C  18,H  21)          110.5076         0.326102   
    111. A(H  19,C  18,H  20)          108.4334         0.291601   
    112. A(C  17,C  18,H  20)          110.5721         0.326177   
    113. A(C  17,C  18,H  19)          110.5363         0.326046   
    114. D(H  36,C   1,C   0,H  38)    -60.7428         0.011694   
    115. D(H  35,C   1,C   0,H  38)     57.2916         0.011694   
    116. D(C   2,C   1,C   0,H  37)    -61.3781         0.011694   
    117. D(C   2,C   1,C   0,H  38)    178.7949         0.011694   
    118. D(H  35,C   1,C   0,H  37)    177.1186         0.011694   
    119. D(H  36,C   1,C   0,H  37)     59.0842         0.011694   
    120. D(H  35,C   1,C   0,H  39)    -62.9054         0.011694   
    121. D(C   2,C   1,C   0,H  39)     58.5980         0.011694   
    122. D(H  36,C   1,C   0,H  39)    179.0602         0.011694   
    123. D(H  34,C   2,C   1,C   0)     47.9312         0.011398   
    124. D(H  33,C   2,C   1,C   0)    -70.1913         0.011398   
    125. D(C   3,C   2,C   1,C   0)    169.4775         0.011398   
    126. D(C   3,C   2,C   1,H  36)     48.6907         0.011398   
    127. D(H  33,C   2,C   1,H  36)    169.0219         0.011398   
    128. D(H  34,C   2,C   1,H  36)    -72.8556         0.011398   
    129. D(H  33,C   2,C   1,H  35)     51.6060         0.011398   
    130. D(C   3,C   2,C   1,H  35)    -68.7251         0.011398   
    131. D(H  34,C   2,C   1,H  35)    169.7286         0.011398   
    132. D(H  32,C   3,C   2,H  33)     55.0980         0.011011   
    133. D(H  32,C   3,C   2,C   1)    176.5940         0.011011   
    134. D(H  31,C   3,C   2,H  34)    179.2222         0.011011   
    135. D(H  31,C   3,C   2,H  33)    -63.7439         0.011011   
    136. D(O   4,C   3,C   2,H  33)    178.9619         0.011011   
    137. D(O   4,C   3,C   2,C   1)    -59.5421         0.011011   
    138. D(O   4,C   3,C   2,H  34)     61.9280         0.011011   
    139. D(H  32,C   3,C   2,H  34)    -61.9359         0.011011   
    140. D(H  31,C   3,C   2,C   1)     57.7521         0.011011   
    141. D(C   5,O   4,C   3,H  32)     52.7108         0.021491   
    142. D(C   5,O   4,C   3,C   2)    -70.9337         0.021491   
    143. D(C   5,O   4,C   3,H  31)    168.7758         0.021491   
    144. D(C   6,C   5,O   4,C   3)     85.9911         0.020719   
    145. D(H  30,C   5,O   4,C   3)    -38.0480         0.020719   
    146. D(H  29,C   5,O   4,C   3)   -154.9209         0.020719   
    147. D(C  11,C   6,C   5,H  29)    -60.4025         0.012214   
    148. D(C  11,C   6,C   5,O   4)     56.1438         0.012214   
    149. D(C   7,C   6,C   5,H  30)      2.6022         0.012214   
    150. D(C   7,C   6,C   5,H  29)    121.8823         0.012214   
    151. D(C  11,C   6,C   5,H  30)   -179.6827         0.012214   
    152. D(C   7,C   6,C   5,O   4)   -121.5713         0.012214   
    153. D(H  28,C   7,C   6,C  11)    179.0460         0.028556   
    154. D(H  28,C   7,C   6,C   5)     -3.1749         0.028556   
    155. D(N   8,C   7,C   6,C  11)     -1.5365         0.028556   
    156. D(N   8,C   7,C   6,C   5)    176.2426         0.028556   
    157. D(C   9,N   8,C   7,C   6)      0.3744         0.037775   
    158. D(C   9,N   8,C   7,H  28)    179.8263         0.037775   
    159. D(O  14,C   9,N   8,C   7)   -179.2570         0.038361   
    160. D(C  10,C   9,N   8,C   7)      1.1904         0.038361   
    161. D(H  13,C  10,C   9,O  14)     -0.5542         0.024528   
    162. D(H  13,C  10,C   9,N   8)    179.0082         0.024528   
    163. D(C  11,C  10,C   9,O  14)    178.9435         0.024528   
    164. D(C  11,C  10,C   9,N   8)     -1.4941         0.024528   
    165. D(H  12,C  11,C  10,C   9)   -179.1499         0.030468   
    166. D(C   6,C  11,C  10,H  13)    179.7306         0.030468   
    167. D(C   6,C  11,C  10,C   9)      0.2499         0.030468   
    168. D(H  12,C  11,C   6,C   7)   -179.4372         0.025499   
    169. D(H  12,C  11,C   6,C   5)      2.7243         0.025499   
    170. D(C  10,C  11,C   6,C   7)      1.1536         0.025499   
    171. D(H  12,C  11,C  10,H  13)      0.3308         0.030468   
    172. D(C  10,C  11,C   6,C   5)   -176.6848         0.025499   
    173. D(C  15,O  14,C   9,C  10)   -176.3554         0.033267   
    174. D(C  15,O  14,C   9,N   8)      4.0699         0.033267   
    175. D(H  26,C  15,O  14,C   9)    -47.6401         0.019717   
    176. D(C  16,C  15,O  14,C   9)     74.7187         0.019717   
    177. D(H  27,C  15,O  14,C   9)   -165.2895         0.019717   
    178. D(H  25,C  16,C  15,H  27)     63.9857         0.011285   
    179. D(H  25,C  16,C  15,H  26)    -57.5755         0.011285   
    180. D(H  25,C  16,C  15,O  14)   -179.6349         0.011285   
    181. D(H  24,C  16,C  15,H  27)   -178.9799         0.011285   
    182. D(H  24,C  16,C  15,H  26)     59.4589         0.011285   
    183. D(H  24,C  16,C  15,O  14)    -62.6005         0.011285   
    184. D(C  17,C  16,C  15,H  27)    -57.5323         0.011285   
    185. D(C  17,C  16,C  15,H  26)   -179.0935         0.011285   
    186. D(C  17,C  16,C  15,O  14)     58.8471         0.011285   
    187. D(H  23,C  17,C  16,H  25)    -59.0593         0.011374   
    188. D(H  23,C  17,C  16,H  24)   -177.8808         0.011374   
    189. D(H  23,C  17,C  16,C  15)     61.4078         0.011374   
    190. D(H  22,C  17,C  16,H  25)   -176.4879         0.011374   
    191. D(H  22,C  17,C  16,H  24)     64.6906         0.011374   
    192. D(H  22,C  17,C  16,C  15)    -56.0209         0.011374   
    193. D(C  18,C  17,C  16,H  25)     62.3503         0.011374   
    194. D(C  18,C  17,C  16,H  24)    -56.4712         0.011374   
    195. D(C  18,C  17,C  16,C  15)   -177.1827         0.011374   
    196. D(H  21,C  18,C  17,H  22)    -60.6724         0.011688   
    197. D(H  21,C  18,C  17,C  16)     60.2536         0.011688   
    198. D(H  20,C  18,C  17,H  23)    -58.5708         0.011688   
    199. D(H  20,C  18,C  17,H  22)     59.2861         0.011688   
    200. D(H  20,C  18,C  17,C  16)   -179.7879         0.011688   
    201. D(H  19,C  18,C  17,H  23)     61.5124         0.011688   
    202. D(H  19,C  18,C  17,H  22)    179.3693         0.011688   
    203. D(H  21,C  18,C  17,H  23)   -178.5293         0.011688   
    204. D(H  19,C  18,C  17,C  16)    -59.7047         0.011688   
    -----------------------------------------------------------------

Number of atoms                         .... 40
Number of degrees of freedom            .... 204

         *************************************************************
         *                GEOMETRY OPTIMIZATION CYCLE   1            *
         *************************************************************
---------------------------------
CARTESIAN COORDINATES (ANGSTROEM)
---------------------------------
  C      0.235600    2.460700   -0.800700
  C      1.713300    2.091800   -0.806700
  C      2.228600    1.810200    0.602600
  C      3.630100    1.192200    0.594700
  O      3.744700   -0.033200   -0.092600
  C      3.134100   -1.147900    0.528100
  C      1.672800   -1.290500    0.186800
  C      0.678500   -1.294500    1.148100
  N     -0.617000   -1.346300    0.872700
  C     -0.990500   -1.405100   -0.395700
  C     -0.069700   -1.439100   -1.453100
  C      1.269500   -1.378100   -1.148400
  H      2.017100   -1.387200   -1.928100
  H     -0.431000   -1.503100   -2.466100
  O     -2.294600   -1.443400   -0.707000
  C     -3.224400   -1.328700    0.361400
  C     -3.328200    0.100500    0.892400
  C     -3.753900    1.086900   -0.192800
  C     -3.787600    2.517400    0.329200
  H     -4.487800    2.605100    1.157400
  H     -4.096100    3.203500   -0.456000
  H     -2.802800    2.818500    0.679600
  H     -3.055400    1.020700   -1.029400
  H     -4.743000    0.809100   -0.564500
  H     -2.357200    0.391700    1.296500
  H     -4.051300    0.109000    1.709900
  H     -2.933400   -2.006600    1.170400
  H     -4.176400   -1.649300   -0.068900
  H      0.916500   -1.244900    2.204200
  H      3.681500   -2.018200    0.147500
  H      3.265800   -1.099600    1.618400
  H      4.323500    1.859100    0.074200
  H      3.976300    1.067100    1.633200
  H      2.271500    2.737700    1.177800
  H      1.537600    1.135300    1.110600
  H      2.296400    2.901800   -1.250400
  H      1.861500    1.201400   -1.420000
  H     -0.357200    1.637500   -0.406600
  H     -0.109900    2.678500   -1.808500
  H      0.061900    3.338000   -0.180500

----------------------------
CARTESIAN COORDINATES (A.U.)
----------------------------
  NO LB      ZA    FRAG     MASS         X           Y           Z
   0 C     6.0000    0    12.011    0.445219    4.650049   -1.513104
   1 C     6.0000    0    12.011    3.237668    3.952929   -1.524442
   2 C     6.0000    0    12.011    4.211444    3.420782    1.138749
   3 C     6.0000    0    12.011    6.859895    2.252931    1.123820
   4 O     8.0000    0    15.999    7.076457   -0.062739   -0.174989
   5 C     6.0000    0    12.011    5.922591   -2.169217    0.997964
   6 C     6.0000    0    12.011    3.161134   -2.438692    0.353001
   7 C     6.0000    0    12.011    1.282179   -2.446250    2.169595
   8 N     7.0000    0    14.007   -1.165961   -2.544138    1.649164
   9 C     6.0000    0    12.011   -1.871774   -2.655254   -0.747765
  10 C     6.0000    0    12.011   -0.131714   -2.719505   -2.745961
  11 C     6.0000    0    12.011    2.399007   -2.604232   -2.170161
  12 H     1.0000    0     1.008    3.811767   -2.621428   -3.643581
  13 H     1.0000    0     1.008   -0.814472   -2.840447   -4.660254
  14 O     8.0000    0    15.999   -4.336166   -2.727631   -1.336036
  15 C     6.0000    0    12.011   -6.093233   -2.510879    0.682947
  16 C     6.0000    0    12.011   -6.289387    0.189917    1.686392
  17 C     6.0000    0    12.011   -7.093843    2.053943   -0.364339
  18 C     6.0000    0    12.011   -7.157527    4.757197    0.622098
  19 H     1.0000    0     1.008   -8.480713    4.922926    2.187169
  20 H     1.0000    0     1.008   -7.740507    6.053738   -0.861715
  21 H     1.0000    0     1.008   -5.296524    5.326193    1.284258
  22 H     1.0000    0     1.008   -5.773869    1.928843   -1.945284
  23 H     1.0000    0     1.008   -8.962971    1.528977   -1.066750
  24 H     1.0000    0     1.008   -4.454462    0.740206    2.450030
  25 H     1.0000    0     1.008   -7.655847    0.205980    3.231243
  26 H     1.0000    0     1.008   -5.543323   -3.791924    2.211735
  27 H     1.0000    0     1.008   -7.892252   -3.116725   -0.130202
  28 H     1.0000    0     1.008    1.731934   -2.352520    4.165334
  29 H     1.0000    0     1.008    6.957027   -3.813845    0.278735
  30 H     1.0000    0     1.008    6.171468   -2.077943    3.058333
  31 H     1.0000    0     1.008    8.170231    3.513190    0.140218
  32 H     1.0000    0     1.008    7.514118    2.016527    3.086301
  33 H     1.0000    0     1.008    4.292513    5.173503    2.225719
  34 H     1.0000    0     1.008    2.905643    2.145406    2.098730
  35 H     1.0000    0     1.008    4.339567    5.483607   -2.362914
  36 H     1.0000    0     1.008    3.517725    2.270317   -2.683411
  37 H     1.0000    0     1.008   -0.675010    3.094427   -0.768363
  38 H     1.0000    0     1.008   -0.207681    5.061631   -3.417570
  39 H     1.0000    0     1.008    0.116974    6.307906   -0.341096

--------------------------------
INTERNAL COORDINATES (ANGSTROEM)
--------------------------------
 C      0   0   0     0.000000000000     0.00000000     0.00000000
 C      1   0   0     1.523062868039     0.00000000     0.00000000
 C      2   1   0     1.526747896674   111.62313886     0.00000000
 C      3   2   1     1.531727345189   112.23928476   169.47752307
 O      4   3   2     1.409652301101   115.31721255   300.45788355
 C      5   4   3     1.414445806668   115.85025906   289.06632729
 C      6   5   4     1.507387853208   113.18392898    85.99106143
 C      7   6   5     1.383020672297   122.67335608   238.42869437
 N      8   7   6     1.325461674286   123.94352197   176.24262065
 C      9   8   7     1.323555155632   118.46813778     0.37442155
 C     10   9   8     1.402541764084   122.56864630     1.19042210
 C     11  10   9     1.374779884200   118.12267166   358.50589910
 H     12  11  10     1.080241019403   120.91795923   180.85007155
 H     11  10   9     1.077405536462   119.34906764   179.00818940
 O     10   9   8     1.341287213836   119.87160410   180.74302744
 C     15  10   9     1.420972445194   117.34775467     4.06986580
 C     16  15  10     1.528184570005   112.40757567    74.71873463
 C     17  16  15     1.527044364123   112.09338271    58.84713397
 C     18  17  16     1.523138188084   111.67145025   182.81730937
 H     19  18  17     1.088065517329   110.53626267   300.29527665
 H     19  18  17     1.087402639320   110.57211057   180.21207714
 H     19  18  17     1.087783255065   110.50758769    60.25359828
 H     18  17  16     1.091871901827   109.08708105   303.97911247
 H     18  17  16     1.092544067761   109.26320623    61.40776873
 H     17  16  15     1.091299798406   108.52894804   297.39949766
 H     17  16  15     1.091444964256   108.21250841   180.36509035
 H     16  15  10     1.094856342175   109.37054074   312.35991903
 H     16  15  10     1.092815835354   104.49462145   194.71046651
 H      8   7   6     1.083721075739   121.28780456   356.82507584
 H      6   5   4     1.096323496966   104.93476738   205.07912376
 H      6   5   4     1.099286982548   110.41984835   321.95203524
 H      4   3   2     1.093837017110   109.66288962    57.75208480
 H      4   3   2     1.101810646164   109.17438556   176.59395957
 H      3   2   1     1.092223283033   110.04447502   289.80870899
 H      3   2   1     1.091345504412   109.27077247    47.93123714
 H      2   1   3     1.092234086632   109.87306774   238.49664860
 H      2   1   3     1.091289278789   109.36556764   120.46226637
 H      1   2   3     1.088294486800   110.28550305   298.62191086
 H      1   2   3     1.087413412645   110.67856260   178.79492589
 H      1   2   3     1.088335894841   110.63026576    58.59797477

---------------------------
INTERNAL COORDINATES (A.U.)
---------------------------
 C      0   0   0     0.000000000000     0.00000000     0.00000000
 C      1   0   0     2.878171705339     0.00000000     0.00000000
 C      2   1   0     2.885135400255   111.62313886     0.00000000
 C      3   2   1     2.894545194246   112.23928476   169.47752307
 O      4   3   2     2.663856793133   115.31721255   300.45788355
 C      5   4   3     2.672915205875   115.85025906   289.06632729
 C      6   5   4     2.848550220163   113.18392898    85.99106143
 C      7   6   5     2.613530308192   122.67335608   238.42869437
 N      8   7   6     2.504759565409   123.94352197   176.24262065
 C      9   8   7     2.501156767284   118.46813778     0.37442155
 C     10   9   8     2.650419825506   122.56864630     1.19042210
 C     11  10   9     2.597957475561   118.12267166   358.50589910
 H     12  11  10     2.041359685299   120.91795923   180.85007155
 H     11  10   9     2.036001399085   119.34906764   179.00818940
 O     10   9   8     2.534665501080   119.87160410   180.74302744
 C     15  10   9     2.685248765265   117.34775467     4.06986580
 C     16  15  10     2.887850319393   112.40757567    74.71873463
 C     17  16  15     2.885695642541   112.09338271    58.84713397
 C     18  17  16     2.878314039596   111.67145025   182.81730937
 H     19  18  17     2.056145843515   110.53626267   300.29527665
 H     19  18  17     2.054893185618   110.57211057   180.21207714
 H     19  18  17     2.055612445138   110.50758769    60.25359828
 H     18  17  16     2.063338867777   109.08708105   303.97911247
 H     18  17  16     2.064609077309   109.26320623    61.40776873
 H     17  16  15     2.062257748990   108.52894804   297.39949766
 H     17  16  15     2.062532072691   108.21250841   180.36509035
 H     16  15  10     2.068978642697   109.37054074   312.35991903
 H     16  15  10     2.065122643631   104.49462145   194.71046651
 H      8   7   6     2.047936038704   121.28780456   356.82507584
 H      6   5   4     2.071751163449   104.93476738   205.07912376
 H      6   5   4     2.077351339601   110.41984835   321.95203524
 H      4   3   2     2.067052397483   109.66288962    57.75208480
 H      4   3   2     2.082120372688   109.17438556   176.59395957
 H      3   2   1     2.064002882025   110.04447502   289.80870899
 H      3   2   1     2.062344120825   109.27077247    47.93123714
 H      2   1   3     2.064023297867   109.87306774   238.49664860
 H      2   1   3     2.062237869796   109.36556764   120.46226637
 H      1   2   3     2.056578533109   110.28550305   298.62191086
 H      1   2   3     2.054913544252   110.67856260   178.79492589
 H      1   2   3     2.056656782966   110.63026576    58.59797477

---------------------
BASIS SET INFORMATION
---------------------
There are 4 groups of distinct atoms

 Group   1 Type C   : 7s4p1d contracted to 3s2p1d pattern {511/31/1}
 Group   2 Type O   : 7s4p1d contracted to 3s2p1d pattern {511/31/1}
 Group   3 Type N   : 7s4p1d contracted to 3s2p1d pattern {511/31/1}
 Group   4 Type H   : 4s1p contracted to 2s1p pattern {31/1}

Atom   0C    basis set group =>   1
Atom   1C    basis set group =>   1
Atom   2C    basis set group =>   1
Atom   3C    basis set group =>   1
Atom   4O    basis set group =>   2
Atom   5C    basis set group =>   1
Atom   6C    basis set group =>   1
Atom   7C    basis set group =>   1
Atom   8N    basis set group =>   3
Atom   9C    basis set group =>   1
Atom  10C    basis set group =>   1
Atom  11C    basis set group =>   1
Atom  12H    basis set group =>   4
Atom  13H    basis set group =>   4
Atom  14O    basis set group =>   2
Atom  15C    basis set group =>   1
Atom  16C    basis set group =>   1
Atom  17C    basis set group =>   1
Atom  18C    basis set group =>   1
Atom  19H    basis set group =>   4
Atom  20H    basis set group =>   4
Atom  21H    basis set group =>   4
Atom  22H    basis set group =>   4
Atom  23H    basis set group =>   4
Atom  24H    basis set group =>   4
Atom  25H    basis set group =>   4
Atom  26H    basis set group =>   4
Atom  27H    basis set group =>   4
Atom  28H    basis set group =>   4
Atom  29H    basis set group =>   4
Atom  30H    basis set group =>   4
Atom  31H    basis set group =>   4
Atom  32H    basis set group =>   4
Atom  33H    basis set group =>   4
Atom  34H    basis set group =>   4
Atom  35H    basis set group =>   4
Atom  36H    basis set group =>   4
Atom  37H    basis set group =>   4
Atom  38H    basis set group =>   4
Atom  39H    basis set group =>   4
------------------------------------------------------------------------------
                           ORCA GTO INTEGRAL CALCULATION
------------------------------------------------------------------------------

                         BASIS SET STATISTICS AND STARTUP INFO

 # of primitive gaussian shells          ...  319
 # of primitive gaussian functions       ...  569
 # of contracted shells                  ...  171
 # of contracted basis functions         ...  353
 Highest angular momentum                ...    2
 Maximum contraction depth               ...    5
 Integral package used                   ... LIBINT
 Integral threshhold            Thresh   ...  2.500e-11
 Primitive cut-off              TCut     ...  2.500e-12


------------------------------ INTEGRAL EVALUATION ----------------------------


 * One electron integrals 
 Pre-screening matrix                    ... done
 Shell pair data                         ... done (   0.004 sec)

-------------------------------------------------------------------------------
                                 ORCA SCF
-------------------------------------------------------------------------------

------------
SCF SETTINGS
------------
Hamiltonian:
 Density Functional     Method          .... DFT(GTOs)
 Exchange Functional    Exchange        .... WB97X-D3
 Correlation Functional Correlation     .... WB97X-D3
 Gradients option       PostSCFGGA      .... off
 Hybrid DFT is turned on
   Fraction HF Exchange ScalHFX         ....  0.195728
   Scaling of DF-GGA-X  ScalDFX         ....  0.000000
   Scaling of DF-GGA-C  ScalDFC         ....  1.000000
   Scaling of DF-LDA-C  ScalLDAC        ....  1.000000
   Perturbative correction              ....  0.000000
   Density functional embedding theory  .... OFF
 Long-range corrected/Screened/Range-Separated Hybrid DFT is turned on
   Amount of maximum screened exact exchange              ....  0.804272
   Range separation parameter mu (erf(mu*r12)/r12)        ....  0.250000


General Settings:
 Integral files         IntName         .... 019016745
 Hartree-Fock type      HFTyp           .... RHF
 Total Charge           Charge          ....    0
 Multiplicity           Mult            ....    1
 Number of Electrons    NEL             ....  130
 Basis Dimension        Dim             ....  353
 Nuclear Repulsion      ENuc            ....   1287.4372861179 Eh

Convergence Acceleration:
 DIIS                   CNVDIIS         .... on
   Start iteration      DIISMaxIt       ....    12
   Startup error        DIISStart       ....  0.200000
   # of expansion vecs  DIISMaxEq       ....     5
   Bias factor          DIISBfac        ....   1.050
   Max. coefficient     DIISMaxC        ....  10.000
 Newton-Raphson         CNVNR           .... off
 SOSCF                  CNVSOSCF        .... on
   Start iteration      SOSCFMaxIt      ....   150
   Startup grad/error   SOSCFStart      ....  0.003300
 Level Shifting         CNVShift        .... on
   Level shift para.    LevelShift      ....    0.2500
   Turn off err/grad.   ShiftErr        ....    0.0010
 Zerner damping         CNVZerner       .... off
 Static damping         CNVDamp         .... on
   Fraction old density DampFac         ....    0.7000
   Max. Damping (<1)    DampMax         ....    0.9800
   Min. Damping (>=0)   DampMin         ....    0.0000
   Turn off err/grad.   DampErr         ....    0.1000
 Fernandez-Rico         CNVRico         .... off

SCF Procedure:
 Maximum # iterations   MaxIter         ....   125
 SCF integral mode      SCFMode         .... Direct
   Integral package                     .... LIBINT
 Reset frequency        DirectResetFreq ....    20
 Integral Threshold     Thresh          ....  2.500e-11 Eh
 Primitive CutOff       TCut            ....  2.500e-12 Eh

Convergence Tolerance:
 Convergence Check Mode ConvCheckMode   .... Total+1el-Energy
 Convergence forced     ConvForced      .... 0
 Energy Change          TolE            ....  1.000e-08 Eh
 1-El. energy change                    ....  1.000e-05 Eh
 Orbital Gradient       TolG            ....  1.000e-05
 Orbital Rotation angle TolX            ....  1.000e-05
 DIIS Error             TolErr          ....  5.000e-07


Diagonalization of the overlap matrix:
Smallest eigenvalue                        ... 4.940e-04
Time for diagonalization                   ...    0.087 sec
Threshold for overlap eigenvalues          ... 1.000e-08
Number of eigenvalues below threshold      ... 0
Time for construction of square roots      ...    0.007 sec
Total time needed                          ...    0.095 sec

-------------------
DFT GRID GENERATION
-------------------

General Integration Accuracy     IntAcc      ...  4.340
Radial Grid Type                 RadialGrid  ... Gauss-Chebyshev
Angular Grid (max. acc.)         AngularGrid ... Lebedev-110
Angular grid pruning method      GridPruning ... 3 (G Style)
Weight generation scheme         WeightScheme... Becke
Basis function cutoff            BFCut       ...    1.0000e-11
Integration weight cutoff        WCut        ...    1.0000e-14
Grids for H and He will be reduced by one unit

# of grid points (after initial pruning)     ...  46580 (   0.0 sec)
# of grid points (after weights+screening)   ...  41245 (   0.3 sec)
nearest neighbour list constructed           ...    0.0 sec
Grid point re-assignment to atoms done       ...    0.0 sec
Grid point division into batches done        ...    0.0 sec
Reduced shell lists constructed in    0.4 sec

Total number of grid points                  ...    41245
Total number of batches                      ...      664
Average number of points per batch           ...       62
Average number of grid points per atom       ...     1031
Average number of shells per batch           ...    94.28 (55.13%)
Average number of basis functions per batch  ...   180.06 (51.01%)
Average number of large shells per batch     ...    63.10 (66.94%)
Average number of large basis fcns per batch ...   120.25 (66.78%)
Maximum spatial batch extension              ...  20.86, 20.05, 18.64 au
Average spatial batch extension              ...   3.08,  3.27,  3.24 au

Time for grid setup =    0.801 sec

------------------------------
INITIAL GUESS: MODEL POTENTIAL
------------------------------
Loading Hartree-Fock densities                     ... done
Calculating cut-offs                               ... done
Setting up the integral package                    ... done
Initializing the effective Hamiltonian             ... done
Starting the Coulomb interaction                   ... done (   0.7 sec)
Reading the grid                                   ... done
Mapping shells                                     ... done
Starting the XC term evaluation                    ... done (   0.6 sec)
  promolecular density results
     # of electrons  =    129.986171646
     EX              =   -101.311561601
     EC              =     -4.326270077
     EX+EC           =   -105.637831678
Transforming the Hamiltonian                       ... done (   0.0 sec)
Diagonalizing the Hamiltonian                      ... done (   0.0 sec)
Back transforming the eigenvectors                 ... done (   0.0 sec)
Now organizing SCF variables                       ... done
                      ------------------
                      INITIAL GUESS DONE (   2.2 sec)
                      ------------------
--------------
SCF ITERATIONS
--------------
ITER       Energy         Delta-E        Max-DP      RMS-DP      [F,P]     Damp
               ***  Starting incremental Fock matrix formation  ***
  0   -751.3903683747   0.000000000000 0.06624291  0.00124549  0.1675879 0.7000
  1   -751.5458134087  -0.155445033941 0.04440278  0.00090896  0.0998242 0.7000
                               ***Turning on DIIS***
  2   -751.6274805961  -0.081667187412 0.07710050  0.00181289  0.0521053 0.0000
  3   -751.7619251945  -0.134444598445 0.03388776  0.00059548  0.0364771 0.0000
  4   -751.7807061323  -0.018780937810 0.00542217  0.00011065  0.0051579 0.0000
  5   -751.7811012579  -0.000395125571 0.00276640  0.00004908  0.0038503 0.0000
                      *** Initiating the SOSCF procedure ***
                           *** Shutting down DIIS ***
                      *** Re-Reading the Fockian *** 
                      *** Removing any level shift *** 
ITER      Energy       Delta-E        Grad      Rot      Max-DP    RMS-DP
  6   -751.78116336  -0.0000621052  0.000413  0.000413  0.001187  0.000031
               *** Restarting incremental Fock matrix formation ***
  7   -751.78117561  -0.0000122472  0.000253  0.000662  0.000622  0.000011
  8   -751.78117659  -0.0000009758  0.000183  0.000298  0.000313  0.000005
  9   -751.78117746  -0.0000008741  0.000034  0.000135  0.000079  0.000002
 10   -751.78117750  -0.0000000375  0.000012  0.000038  0.000043  0.000001
 11   -751.78117751  -0.0000000120  0.000004  0.000011  0.000018  0.000000
 12   -751.78117751  -0.0000000045  0.000003  0.000005  0.000005  0.000000
                  ***Gradient check signals convergence***
              ***Rediagonalizing the Fockian in SOSCF/NRSCF***

               *****************************************************
               *                     SUCCESS                       *
               *           SCF CONVERGED AFTER  13 CYCLES          *
               *****************************************************

Setting up the final grid:

General Integration Accuracy     IntAcc      ...  4.670
Radial Grid Type                 RadialGrid  ... Gauss-Chebyshev
Angular Grid (max. acc.)         AngularGrid ... Lebedev-302
Angular grid pruning method      GridPruning ... 3 (G Style)
Weight generation scheme         WeightScheme... Becke
Basis function cutoff            BFCut       ...    1.0000e-11
Integration weight cutoff        WCut        ...    1.0000e-14
Grids for H and He will be reduced by one unit

# of grid points (after initial pruning)     ... 183666 (   0.1 sec)
# of grid points (after weights+screening)   ... 158872 (   1.3 sec)
nearest neighbour list constructed           ...    0.0 sec
Grid point re-assignment to atoms done       ...    0.0 sec
Grid point division into batches done        ...    0.5 sec
Reduced shell lists constructed in    1.9 sec

Total number of grid points                  ...   158872
Total number of batches                      ...     2504
Average number of points per batch           ...       63
Average number of grid points per atom       ...     3972
Average number of shells per batch           ...    86.08 (50.34%)
Average number of basis functions per batch  ...   162.79 (46.12%)
Average number of large shells per batch     ...    56.53 (65.67%)
Average number of large basis fcns per batch ...   106.73 (65.57%)
Maximum spatial batch extension              ...  21.00, 19.78, 20.82 au
Average spatial batch extension              ...   2.12,  2.18,  2.15 au

Final grid set up in    3.3 sec
Final integration                            ... done (   2.7 sec)
Change in XC energy                          ...     0.002777346
Integrated number of electrons               ...   130.000024439
Previous integrated no of electrons          ...   129.999666457

----------------
TOTAL SCF ENERGY
----------------

Total Energy       :         -751.77840017 Eh          -20456.93028 eV

Components:
Nuclear Repulsion  :         1287.43728612 Eh           35032.94960 eV
Electronic Energy  :        -2039.21568628 Eh          -55489.87987 eV
One Electron Energy:        -3575.87119803 Eh          -97304.40216 eV
Two Electron Energy:         1536.65551174 Eh           41814.52228 eV

Virial components:
Potential Energy   :        -1495.68824749 Eh          -40699.74635 eV
Kinetic Energy     :          743.90984733 Eh           20242.81607 eV
Virial Ratio       :            2.01057729


DFT components:
N(Alpha)           :       65.000012219689 electrons
N(Beta)            :       65.000012219689 electrons
N(Total)           :      130.000024439378 electrons
E(XC)              :      -74.278539947439 Eh       
DFET-embed. en.    :        0.000000000000 Eh       

---------------
SCF CONVERGENCE
---------------

  Last Energy change         ...    1.6848e-09  Tolerance :   1.0000e-08
  Last MAX-Density change    ...    2.0743e-06  Tolerance :   1.0000e-07
  Last RMS-Density change    ...    4.6652e-08  Tolerance :   5.0000e-09
  Last Orbital Gradient      ...    1.1922e-06  Tolerance :   1.0000e-05
  Last Orbital Rotation      ...    2.8135e-06  Tolerance :   1.0000e-05

             **** THE GBW FILE WAS UPDATED (019016745.gbw) ****
             **** DENSITY FILE WAS UPDATED (019016745.scfp) ****
             **** ENERGY FILE WAS UPDATED (019016745.en.tmp) ****
             **** THE GBW FILE WAS UPDATED (019016745.gbw) ****
             **** DENSITY FILE WAS UPDATED (019016745.scfp) ****
----------------
ORBITAL ENERGIES
----------------

  NO   OCC          E(Eh)            E(eV) 
   0   2.0000     -19.271584      -524.4065 
   1   2.0000     -19.240183      -523.5520 
   2   2.0000     -14.424809      -392.5190 
   3   2.0000     -10.383356      -282.5455 
   4   2.0000     -10.341550      -281.4079 
   5   2.0000     -10.333100      -281.1780 
   6   2.0000     -10.329751      -281.0868 
   7   2.0000     -10.328243      -281.0458 
   8   2.0000     -10.310363      -280.5592 
   9   2.0000     -10.296398      -280.1792 
  10   2.0000     -10.294808      -280.1360 
  11   2.0000     -10.276840      -279.6470 
  12   2.0000     -10.276352      -279.6337 
  13   2.0000     -10.275519      -279.6111 
  14   2.0000     -10.273720      -279.5621 
  15   2.0000     -10.270144      -279.4648 
  16   2.0000     -10.269469      -279.4464 
  17   2.0000      -1.188342       -32.3364 
  18   2.0000      -1.141879       -31.0721 
  19   2.0000      -1.056737       -28.7553 
  20   2.0000      -0.928603       -25.2686 
  21   2.0000      -0.912121       -24.8201 
  22   2.0000      -0.904673       -24.6174 
  23   2.0000      -0.884210       -24.0606 
  24   2.0000      -0.842627       -22.9290 
  25   2.0000      -0.828673       -22.5493 
  26   2.0000      -0.790522       -21.5112 
  27   2.0000      -0.762633       -20.7523 
  28   2.0000      -0.740023       -20.1370 
  29   2.0000      -0.724477       -19.7140 
  30   2.0000      -0.703469       -19.1424 
  31   2.0000      -0.685775       -18.6609 
  32   2.0000      -0.675304       -18.3760 
  33   2.0000      -0.631806       -17.1923 
  34   2.0000      -0.626492       -17.0477 
  35   2.0000      -0.597924       -16.2703 
  36   2.0000      -0.591124       -16.0853 
  37   2.0000      -0.580121       -15.7859 
  38   2.0000      -0.567615       -15.4456 
  39   2.0000      -0.562362       -15.3027 
  40   2.0000      -0.552758       -15.0413 
  41   2.0000      -0.547455       -14.8970 
  42   2.0000      -0.539155       -14.6712 
  43   2.0000      -0.531928       -14.4745 
  44   2.0000      -0.519140       -14.1265 
  45   2.0000      -0.508382       -13.8338 
  46   2.0000      -0.505977       -13.7683 
  47   2.0000      -0.497799       -13.5458 
  48   2.0000      -0.487827       -13.2744 
  49   2.0000      -0.477925       -13.0050 
  50   2.0000      -0.466188       -12.6856 
  51   2.0000      -0.463429       -12.6106 
  52   2.0000      -0.449581       -12.2337 
  53   2.0000      -0.446278       -12.1439 
  54   2.0000      -0.436507       -11.8780 
  55   2.0000      -0.427714       -11.6387 
  56   2.0000      -0.420083       -11.4310 
  57   2.0000      -0.418949       -11.4002 
  58   2.0000      -0.413196       -11.2436 
  59   2.0000      -0.405116       -11.0238 
  60   2.0000      -0.397968       -10.8293 
  61   2.0000      -0.379419       -10.3245 
  62   2.0000      -0.363694        -9.8966 
  63   2.0000      -0.347643        -9.4599 
  64   2.0000      -0.314361        -8.5542 
  65   0.0000       0.048825         1.3286 
  66   0.0000       0.067967         1.8495 
  67   0.0000       0.134230         3.6526 
  68   0.0000       0.147604         4.0165 
  69   0.0000       0.160518         4.3679 
  70   0.0000       0.164675         4.4810 
  71   0.0000       0.168569         4.5870 
  72   0.0000       0.177004         4.8165 
  73   0.0000       0.189982         5.1697 
  74   0.0000       0.195789         5.3277 
  75   0.0000       0.199091         5.4175 
  76   0.0000       0.204750         5.5715 
  77   0.0000       0.206313         5.6141 
  78   0.0000       0.212601         5.7852 
  79   0.0000       0.219560         5.9745 
  80   0.0000       0.224028         6.0961 
  81   0.0000       0.229162         6.2358 
  82   0.0000       0.233682         6.3588 
  83   0.0000       0.237133         6.4527 
  84   0.0000       0.245982         6.6935 
  85   0.0000       0.248882         6.7724 
  86   0.0000       0.252821         6.8796 
  87   0.0000       0.254873         6.9354 
  88   0.0000       0.263945         7.1823 
  89   0.0000       0.276910         7.5351 
  90   0.0000       0.280254         7.6261 
  91   0.0000       0.286501         7.7961 
  92   0.0000       0.287483         7.8228 
  93   0.0000       0.315102         8.5744 
  94   0.0000       0.319486         8.6936 
  95   0.0000       0.324169         8.8211 
  96   0.0000       0.328128         8.9288 
  97   0.0000       0.337973         9.1967 
  98   0.0000       0.342399         9.3172 
  99   0.0000       0.346696         9.4341 
 100   0.0000       0.355550         9.6750 
 101   0.0000       0.360705         9.8153 
 102   0.0000       0.381153        10.3717 
 103   0.0000       0.389291        10.5932 
 104   0.0000       0.403466        10.9789 
 105   0.0000       0.444081        12.0840 
 106   0.0000       0.455554        12.3962 
 107   0.0000       0.477443        12.9919 
 108   0.0000       0.497783        13.5454 
 109   0.0000       0.501071        13.6348 
 110   0.0000       0.510407        13.8889 
 111   0.0000       0.518627        14.1126 
 112   0.0000       0.520088        14.1523 
 113   0.0000       0.527640        14.3578 
 114   0.0000       0.535588        14.5741 
 115   0.0000       0.544028        14.8038 
 116   0.0000       0.547236        14.8910 
 117   0.0000       0.557431        15.1685 
 118   0.0000       0.571150        15.5418 
 119   0.0000       0.578479        15.7412 
 120   0.0000       0.583517        15.8783 
 121   0.0000       0.594101        16.1663 
 122   0.0000       0.614749        16.7282 
 123   0.0000       0.624699        16.9989 
 124   0.0000       0.631095        17.1730 
 125   0.0000       0.642014        17.4701 
 126   0.0000       0.664758        18.0890 
 127   0.0000       0.678589        18.4654 
 128   0.0000       0.684681        18.6311 
 129   0.0000       0.689573        18.7642 
 130   0.0000       0.699961        19.0469 
 131   0.0000       0.702748        19.1227 
 132   0.0000       0.714391        19.4396 
 133   0.0000       0.719993        19.5920 
 134   0.0000       0.722328        19.6556 
 135   0.0000       0.730063        19.8660 
 136   0.0000       0.738444        20.0941 
 137   0.0000       0.739890        20.1334 
 138   0.0000       0.745678        20.2909 
 139   0.0000       0.746983        20.3264 
 140   0.0000       0.747339        20.3361 
 141   0.0000       0.754913        20.5422 
 142   0.0000       0.756772        20.5928 
 143   0.0000       0.761794        20.7295 
 144   0.0000       0.767505        20.8849 
 145   0.0000       0.774011        21.0619 
 146   0.0000       0.776973        21.1425 
 147   0.0000       0.779023        21.1983 
 148   0.0000       0.784648        21.3514 
 149   0.0000       0.791376        21.5344 
 150   0.0000       0.797066        21.6893 
 151   0.0000       0.799165        21.7464 
 152   0.0000       0.804002        21.8780 
 153   0.0000       0.808575        22.0024 
 154   0.0000       0.815181        22.1822 
 155   0.0000       0.817477        22.2447 
 156   0.0000       0.824525        22.4365 
 157   0.0000       0.825931        22.4747 
 158   0.0000       0.830257        22.5924 
 159   0.0000       0.833552        22.6821 
 160   0.0000       0.844223        22.9725 
 161   0.0000       0.851134        23.1605 
 162   0.0000       0.858430        23.3591 
 163   0.0000       0.862632        23.4734 
 164   0.0000       0.870709        23.6932 
 165   0.0000       0.886508        24.1231 
 166   0.0000       0.893220        24.3058 
 167   0.0000       0.902961        24.5708 
 168   0.0000       0.911107        24.7925 
 169   0.0000       0.933413        25.3995 
 170   0.0000       0.938563        25.5396 
 171   0.0000       0.953095        25.9350 
 172   0.0000       0.981595        26.7106 
 173   0.0000       1.001875        27.2624 
 174   0.0000       1.019768        27.7493 
 175   0.0000       1.029904        28.0251 
 176   0.0000       1.043311        28.3899 
 177   0.0000       1.058400        28.8005 
 178   0.0000       1.073969        29.2242 
 179   0.0000       1.091570        29.7031 
 180   0.0000       1.101994        29.9868 
 181   0.0000       1.125143        30.6167 
 182   0.0000       1.149364        31.2758 
 183   0.0000       1.151775        31.3414 
 184   0.0000       1.181516        32.1507 
 185   0.0000       1.186377        32.2830 
 186   0.0000       1.211962        32.9792 
 187   0.0000       1.216259        33.0961 
 188   0.0000       1.245102        33.8809 
 189   0.0000       1.259493        34.2725 
 190   0.0000       1.265249        34.4292 
 191   0.0000       1.290243        35.1093 
 192   0.0000       1.294712        35.2309 
 193   0.0000       1.317741        35.8576 
 194   0.0000       1.342638        36.5350 
 195   0.0000       1.345386        36.6098 
 196   0.0000       1.361222        37.0407 
 197   0.0000       1.374355        37.3981 
 198   0.0000       1.383734        37.6533 
 199   0.0000       1.390171        37.8285 
 200   0.0000       1.408472        38.3265 
 201   0.0000       1.429972        38.9115 
 202   0.0000       1.440917        39.2094 
 203   0.0000       1.457341        39.6563 
 204   0.0000       1.471233        40.0343 
 205   0.0000       1.482936        40.3527 
 206   0.0000       1.497463        40.7480 
 207   0.0000       1.507373        41.0177 
 208   0.0000       1.525421        41.5088 
 209   0.0000       1.535761        41.7902 
 210   0.0000       1.563268        42.5387 
 211   0.0000       1.576446        42.8973 
 212   0.0000       1.585774        43.1511 
 213   0.0000       1.610562        43.8256 
 214   0.0000       1.623304        44.1724 
 215   0.0000       1.647572        44.8327 
 216   0.0000       1.651718        44.9455 
 217   0.0000       1.653663        44.9985 
 218   0.0000       1.668484        45.4018 
 219   0.0000       1.693187        46.0740 
 220   0.0000       1.737594        47.2823 
 221   0.0000       1.746868        47.5347 
 222   0.0000       1.790727        48.7282 
 223   0.0000       1.793438        48.8019 
 224   0.0000       1.802393        49.0456 
 225   0.0000       1.807349        49.1805 
 226   0.0000       1.822936        49.6046 
 227   0.0000       1.838339        50.0237 
 228   0.0000       1.848335        50.2958 
 229   0.0000       1.854019        50.4504 
 230   0.0000       1.856109        50.5073 
 231   0.0000       1.861974        50.6669 
 232   0.0000       1.865500        50.7628 
 233   0.0000       1.873389        50.9775 
 234   0.0000       1.877134        51.0794 
 235   0.0000       1.881898        51.2090 
 236   0.0000       1.888798        51.3968 
 237   0.0000       1.896704        51.6119 
 238   0.0000       1.899075        51.6765 
 239   0.0000       1.906740        51.8850 
 240   0.0000       1.911432        52.0127 
 241   0.0000       1.915901        52.1343 
 242   0.0000       1.929850        52.5139 
 243   0.0000       1.934115        52.6299 
 244   0.0000       1.939900        52.7874 
 245   0.0000       1.943866        52.8953 
 246   0.0000       1.950634        53.0795 
 247   0.0000       1.954568        53.1865 
 248   0.0000       1.966444        53.5096 
 249   0.0000       1.978006        53.8243 
 250   0.0000       1.984757        54.0080 
 251   0.0000       1.987859        54.0924 
 252   0.0000       1.991269        54.1852 
 253   0.0000       1.995611        54.3033 
 254   0.0000       2.001923        54.4751 
 255   0.0000       2.003432        54.5162 
 256   0.0000       2.011328        54.7310 
 257   0.0000       2.020381        54.9774 
 258   0.0000       2.024491        55.0892 
 259   0.0000       2.027303        55.1657 
 260   0.0000       2.042334        55.5747 
 261   0.0000       2.052211        55.8435 
 262   0.0000       2.053796        55.8866 
 263   0.0000       2.061031        56.0835 
 264   0.0000       2.081644        56.6444 
 265   0.0000       2.082980        56.6808 
 266   0.0000       2.092528        56.9406 
 267   0.0000       2.104409        57.2639 
 268   0.0000       2.109889        57.4130 
 269   0.0000       2.131067        57.9893 
 270   0.0000       2.145654        58.3862 
 271   0.0000       2.148878        58.4739 
 272   0.0000       2.166903        58.9644 
 273   0.0000       2.199720        59.8574 
 274   0.0000       2.204116        59.9770 
 275   0.0000       2.217828        60.3502 
 276   0.0000       2.236848        60.8677 
 277   0.0000       2.247473        61.1569 
 278   0.0000       2.266012        61.6613 
 279   0.0000       2.278583        62.0034 
 280   0.0000       2.291804        62.3632 
 281   0.0000       2.312517        62.9268 
 282   0.0000       2.335552        63.5536 
 283   0.0000       2.349809        63.9415 
 284   0.0000       2.366569        64.3976 
 285   0.0000       2.374136        64.6035 
 286   0.0000       2.394184        65.1491 
 287   0.0000       2.428596        66.0855 
 288   0.0000       2.445034        66.5328 
 289   0.0000       2.450495        66.6814 
 290   0.0000       2.466018        67.1038 
 291   0.0000       2.486484        67.6607 
 292   0.0000       2.507107        68.2218 
 293   0.0000       2.515438        68.4486 
 294   0.0000       2.526073        68.7379 
 295   0.0000       2.538412        69.0737 
 296   0.0000       2.545193        69.2582 
 297   0.0000       2.551853        69.4395 
 298   0.0000       2.564395        69.7807 
 299   0.0000       2.570336        69.9424 
 300   0.0000       2.577164        70.1282 
 301   0.0000       2.587844        70.4188 
 302   0.0000       2.614506        71.1443 
 303   0.0000       2.617380        71.2225 
 304   0.0000       2.618535        71.2540 
 305   0.0000       2.676510        72.8315 
 306   0.0000       2.682970        73.0073 
 307   0.0000       2.704102        73.5824 
 308   0.0000       2.707501        73.6749 
 309   0.0000       2.719612        74.0044 
 310   0.0000       2.727315        74.2140 
 311   0.0000       2.754009        74.9404 
 312   0.0000       2.763894        75.2094 
 313   0.0000       2.768206        75.3267 
 314   0.0000       2.818178        76.6865 
 315   0.0000       2.833502        77.1035 
 316   0.0000       2.846007        77.4438 
 317   0.0000       2.863961        77.9323 
 318   0.0000       2.875601        78.2491 
 319   0.0000       2.896587        78.8201 
 320   0.0000       2.922230        79.5179 
 321   0.0000       2.945513        80.1515 
 322   0.0000       2.953658        80.3731 
 323   0.0000       2.964390        80.6651 
 324   0.0000       2.973580        80.9152 
 325   0.0000       2.996181        81.5302 
 326   0.0000       3.002376        81.6988 
 327   0.0000       3.016146        82.0735 
 328   0.0000       3.029590        82.4393 
 329   0.0000       3.038126        82.6716 
 330   0.0000       3.047476        82.9260 
 331   0.0000       3.065845        83.4259 
 332   0.0000       3.074510        83.6617 
 333   0.0000       3.082021        83.8661 
 334   0.0000       3.105418        84.5027 
 335   0.0000       3.127365        85.0999 
 336   0.0000       3.149749        85.7090 
 337   0.0000       3.158781        85.9548 
 338   0.0000       3.165604        86.1405 
 339   0.0000       3.189471        86.7899 
 340   0.0000       3.190588        86.8203 
 341   0.0000       3.209471        87.3342 
 342   0.0000       3.221042        87.6490 
 343   0.0000       3.235705        88.0480 
 344   0.0000       3.238513        88.1244 
 345   0.0000       3.257116        88.6306 
 346   0.0000       3.270566        88.9966 
 347   0.0000       3.382453        92.0412 
 348   0.0000       3.463629        94.2501 
 349   0.0000       3.537739        96.2668 
 350   0.0000       3.629298        98.7582 
 351   0.0000       3.650500        99.3352 
 352   0.0000       3.839539       104.4792 

                    ********************************
                    * MULLIKEN POPULATION ANALYSIS *
                    ********************************

-----------------------
MULLIKEN ATOMIC CHARGES
-----------------------
   0 C :   -0.022908
   1 C :   -0.083030
   2 C :   -0.075649
   3 C :    0.200588
   4 O :   -0.416063
   5 C :    0.320037
   6 C :   -0.222756
   7 C :    0.049836
   8 N :   -0.167085
   9 C :    0.170454
  10 C :   -0.047123
  11 C :    0.065912
  12 H :    0.026311
  13 H :    0.019628
  14 O :   -0.331895
  15 C :    0.226837
  16 C :   -0.095997
  17 C :   -0.086715
  18 C :   -0.017794
  19 H :    0.021531
  20 H :    0.032147
  21 H :    0.022338
  22 H :    0.032262
  23 H :    0.014954
  24 H :    0.032833
  25 H :    0.023950
  26 H :    0.038269
  27 H :    0.024161
  28 H :    0.015554
  29 H :    0.036505
  30 H :    0.001625
  31 H :    0.023374
  32 H :    0.008308
  33 H :    0.024817
  34 H :    0.008805
  35 H :    0.020320
  36 H :    0.028552
  37 H :    0.024467
  38 H :    0.028434
  39 H :    0.024205
Sum of atomic charges:   -0.0000000

--------------------------------
MULLIKEN REDUCED ORBITAL CHARGES
--------------------------------
  0 C s       :     2.986938  s :     2.986938
      pz      :     1.012857  p :     3.007166
      px      :     0.975818
      py      :     1.018491
      dz2     :     0.005371  d :     0.028803
      dxz     :     0.005059
      dyz     :     0.005866
      dx2y2   :     0.005743
      dxy     :     0.006765
  1 C s       :     3.048794  s :     3.048794
      pz      :     0.990064  p :     2.997500
      px      :     0.988804
      py      :     1.018632
      dz2     :     0.006869  d :     0.036737
      dxz     :     0.007082
      dyz     :     0.008821
      dx2y2   :     0.006740
      dxy     :     0.007225
  2 C s       :     3.026341  s :     3.026341
      pz      :     1.014752  p :     3.014005
      px      :     1.001138
      py      :     0.998115
      dz2     :     0.006617  d :     0.035303
      dxz     :     0.007047
      dyz     :     0.009046
      dx2y2   :     0.006031
      dxy     :     0.006562
  3 C s       :     2.989191  s :     2.989191
      pz      :     0.931027  p :     2.746431
      px      :     1.018286
      py      :     0.797119
      dz2     :     0.012153  d :     0.063790
      dxz     :     0.007826
      dyz     :     0.014647
      dx2y2   :     0.013260
      dxy     :     0.015904
  4 O s       :     3.765966  s :     3.765966
      pz      :     1.651195  p :     4.634123
      px      :     1.764683
      py      :     1.218245
      dz2     :     0.002231  d :     0.015973
      dxz     :     0.002305
      dyz     :     0.005722
      dx2y2   :     0.002477
      dxy     :     0.003239
  5 C s       :     2.926173  s :     2.926173
      pz      :     0.927622  p :     2.691091
      px      :     0.914783
      py      :     0.848687
      dz2     :     0.013807  d :     0.062699
      dxz     :     0.006387
      dyz     :     0.010864
      dx2y2   :     0.014699
      dxy     :     0.016943
  6 C s       :     3.081211  s :     3.081211
      pz      :     1.029339  p :     3.100950
      px      :     1.018785
      py      :     1.052825
      dz2     :     0.010230  d :     0.040595
      dxz     :     0.013641
      dyz     :     0.005580
      dx2y2   :     0.005593
      dxy     :     0.005551
  7 C s       :     3.147699  s :     3.147699
      pz      :     0.909285  p :     2.745674
      px      :     0.902162
      py      :     0.934226
      dz2     :     0.012833  d :     0.056791
      dxz     :     0.019518
      dyz     :     0.003087
      dx2y2   :     0.009597
      dxy     :     0.011757
  8 N s       :     3.451019  s :     3.451019
      pz      :     1.247676  p :     3.687729
      px      :     1.243300
      py      :     1.196752
      dz2     :     0.009572  d :     0.028337
      dxz     :     0.004687
      dyz     :     0.004617
      dx2y2   :     0.004928
      dxy     :     0.004533
  9 C s       :     3.019755  s :     3.019755
      pz      :     0.974621  p :     2.708860
      px      :     0.813357
      py      :     0.920882
      dz2     :     0.023015  d :     0.100931
      dxz     :     0.031436
      dyz     :     0.011875
      dx2y2   :     0.015584
      dxy     :     0.019022
 10 C s       :     3.190044  s :     3.190044
      pz      :     0.872996  p :     2.824932
      px      :     0.912215
      py      :     1.039721
      dz2     :     0.006650  d :     0.032147
      dxz     :     0.012680
      dyz     :     0.002908
      dx2y2   :     0.004491
      dxy     :     0.005417
 11 C s       :     3.152864  s :     3.152864
      pz      :     0.935252  p :     2.744512
      px      :     0.891959
      py      :     0.917301
      dz2     :     0.008306  d :     0.036712
      dxz     :     0.012727
      dyz     :     0.005031
      dx2y2   :     0.004669
      dxy     :     0.005980
 12 H s       :     0.950001  s :     0.950001
      pz      :     0.009942  p :     0.023689
      px      :     0.009657
      py      :     0.004090
 13 H s       :     0.956815  s :     0.956815
      pz      :     0.014033  p :     0.023557
      px      :     0.004667
      py      :     0.004857
 14 O s       :     3.730534  s :     3.730534
      pz      :     1.584518  p :     4.584521
      px      :     1.222449
      py      :     1.777555
      dz2     :     0.003724  d :     0.016839
      dxz     :     0.005246
      dyz     :     0.001786
      dx2y2   :     0.003403
      dxy     :     0.002681
 15 C s       :     2.975413  s :     2.975413
      pz      :     0.836071  p :     2.737088
      px      :     0.875891
      py      :     1.025126
      dz2     :     0.009261  d :     0.060662
      dxz     :     0.018184
      dyz     :     0.013734
      dx2y2   :     0.011155
      dxy     :     0.008328
 16 C s       :     3.048747  s :     3.048747
      pz      :     1.014304  p :     3.012289
      px      :     1.027879
      py      :     0.970105
      dz2     :     0.004906  d :     0.034961
      dxz     :     0.008982
      dyz     :     0.007666
      dx2y2   :     0.009004
      dxy     :     0.004402
 17 C s       :     3.053865  s :     3.053865
      pz      :     1.015044  p :     2.996005
      px      :     1.012761
      py      :     0.968200
      dz2     :     0.005186  d :     0.036846
      dxz     :     0.009020
      dyz     :     0.008395
      dx2y2   :     0.008997
      dxy     :     0.005248
 18 C s       :     2.986433  s :     2.986433
      pz      :     1.008171  p :     3.002551
      px      :     1.019904
      py      :     0.974475
      dz2     :     0.003191  d :     0.028810
      dxz     :     0.007062
      dyz     :     0.007325
      dx2y2   :     0.006885
      dxy     :     0.004347
 19 H s       :     0.954460  s :     0.954460
      pz      :     0.010484  p :     0.024010
      px      :     0.009192
      py      :     0.004333
 20 H s       :     0.944399  s :     0.944399
      pz      :     0.009741  p :     0.023454
      px      :     0.005810
      py      :     0.007903
 21 H s       :     0.953495  s :     0.953495
      pz      :     0.005976  p :     0.024168
      px      :     0.013188
      py      :     0.005003
 22 H s       :     0.944703  s :     0.944703
      pz      :     0.010011  p :     0.023035
      px      :     0.009072
      py      :     0.003952
 23 H s       :     0.962521  s :     0.962521
      pz      :     0.005392  p :     0.022525
      px      :     0.012825
      py      :     0.004308
 24 H s       :     0.943500  s :     0.943500
      pz      :     0.005527  p :     0.023668
      px      :     0.013954
      py      :     0.004187
 25 H s       :     0.953044  s :     0.953044
      pz      :     0.009867  p :     0.023006
      px      :     0.009318
      py      :     0.003821
 26 H s       :     0.939816  s :     0.939816
      pz      :     0.009645  p :     0.021916
      px      :     0.004507
      py      :     0.007764
 27 H s       :     0.954907  s :     0.954907
      pz      :     0.004487  p :     0.020932
      px      :     0.011275
      py      :     0.005169
 28 H s       :     0.963256  s :     0.963256
      pz      :     0.014783  p :     0.021190
      px      :     0.002323
      py      :     0.004084
 29 H s       :     0.942456  s :     0.942456
      pz      :     0.005260  p :     0.021039
      px      :     0.006460
      py      :     0.009320
 30 H s       :     0.976735  s :     0.976735
      pz      :     0.014597  p :     0.021640
      px      :     0.004076
      py      :     0.002966
 31 H s       :     0.955747  s :     0.955747
      pz      :     0.006320  p :     0.020879
      px      :     0.008409
      py      :     0.006150
 32 H s       :     0.970666  s :     0.970666
      pz      :     0.013131  p :     0.021026
      px      :     0.005354
      py      :     0.002541
 33 H s       :     0.952892  s :     0.952892
      pz      :     0.006668  p :     0.022291
      px      :     0.004125
      py      :     0.011499
 34 H s       :     0.967652  s :     0.967652
      pz      :     0.006158  p :     0.023544
      px      :     0.008293
      py      :     0.009092
 35 H s       :     0.957510  s :     0.957510
      pz      :     0.005696  p :     0.022169
      px      :     0.006464
      py      :     0.010009
 36 H s       :     0.948247  s :     0.948247
      pz      :     0.006992  p :     0.023201
      px      :     0.004209
      py      :     0.012000
 37 H s       :     0.951374  s :     0.951374
      pz      :     0.006355  p :     0.024158
      px      :     0.007042
      py      :     0.010761
 38 H s       :     0.947770  s :     0.947770
      pz      :     0.013160  p :     0.023796
      px      :     0.005192
      py      :     0.005444
 39 H s       :     0.952182  s :     0.952182
      pz      :     0.008048  p :     0.023612
      px      :     0.004456
      py      :     0.011108


                     *******************************
                     * LOEWDIN POPULATION ANALYSIS *
                     *******************************

----------------------
LOEWDIN ATOMIC CHARGES
----------------------
   0 C :   -0.060203
   1 C :   -0.043358
   2 C :   -0.062253
   3 C :    0.073880
   4 O :   -0.176048
   5 C :    0.086183
   6 C :   -0.101946
   7 C :    0.020278
   8 N :   -0.117690
   9 C :    0.074656
  10 C :   -0.064235
  11 C :    0.022771
  12 H :    0.036695
  13 H :    0.037897
  14 O :   -0.093882
  15 C :    0.084900
  16 C :   -0.055059
  17 C :   -0.044643
  18 C :   -0.060701
  19 H :    0.021291
  20 H :    0.025560
  21 H :    0.021944
  22 H :    0.020960
  23 H :    0.018799
  24 H :    0.022349
  25 H :    0.026867
  26 H :    0.019010
  27 H :    0.020692
  28 H :    0.020848
  29 H :    0.030483
  30 H :    0.011576
  31 H :    0.020862
  32 H :    0.005775
  33 H :    0.026838
  34 H :    0.019830
  35 H :    0.020780
  36 H :    0.020931
  37 H :    0.021292
  38 H :    0.024553
  39 H :    0.021519

-------------------------------
LOEWDIN REDUCED ORBITAL CHARGES
-------------------------------
  0 C s       :     2.827472  s :     2.827472
      pz      :     1.065549  p :     3.159170
      px      :     1.029213
      py      :     1.064407
      dz2     :     0.014650  d :     0.073560
      dxz     :     0.011833
      dyz     :     0.015204
      dx2y2   :     0.015726
      dxy     :     0.016147
  1 C s       :     2.828607  s :     2.828607
      pz      :     1.036002  p :     3.124881
      px      :     1.025399
      py      :     1.063480
      dz2     :     0.018004  d :     0.089870
      dxz     :     0.016227
      dyz     :     0.021192
      dx2y2   :     0.017671
      dxy     :     0.016776
  2 C s       :     2.839712  s :     2.839712
      pz      :     1.044367  p :     3.134802
      px      :     1.036834
      py      :     1.053600
      dz2     :     0.017312  d :     0.087739
      dxz     :     0.016654
      dyz     :     0.021065
      dx2y2   :     0.015050
      dxy     :     0.017657
  3 C s       :     2.840706  s :     2.840706
      pz      :     1.010186  p :     2.938993
      px      :     1.054436
      py      :     0.874371
      dz2     :     0.030596  d :     0.146422
      dxz     :     0.017326
      dyz     :     0.032342
      dx2y2   :     0.028507
      dxy     :     0.037651
  4 O s       :     3.457495  s :     3.457495
      pz      :     1.678043  p :     4.689866
      px      :     1.754767
      py      :     1.257056
      dz2     :     0.003363  d :     0.028686
      dxz     :     0.002896
      dyz     :     0.010791
      dx2y2   :     0.005331
      dxy     :     0.006305
  5 C s       :     2.831875  s :     2.831875
      pz      :     1.018809  p :     2.935830
      px      :     1.003013
      py      :     0.914009
      dz2     :     0.035570  d :     0.146113
      dxz     :     0.014305
      dyz     :     0.023298
      dx2y2   :     0.035277
      dxy     :     0.037662
  6 C s       :     2.859149  s :     2.859149
      pz      :     1.081278  p :     3.137393
      px      :     1.050303
      py      :     1.005812
      dz2     :     0.030250  d :     0.105403
[...]
      pz      :     0.006642  p :     0.023554
      px      :     0.006017
      py      :     0.010895
 38 H s       :     0.941344  s :     0.941344
      pz      :     0.011640  p :     0.022879
      px      :     0.005965
      py      :     0.005275
 39 H s       :     0.947751  s :     0.947751
      pz      :     0.008178  p :     0.022957
      px      :     0.004088
      py      :     0.010691


                     *******************************
                     * LOEWDIN POPULATION ANALYSIS *
                     *******************************

----------------------
LOEWDIN ATOMIC CHARGES
----------------------
   0 C :   -0.066572
   1 C :   -0.047292
   2 C :   -0.065377
   3 C :    0.072025
   4 O :   -0.172888
   5 C :    0.081877
   6 C :   -0.101971
   7 C :    0.021051
   8 N :   -0.123525
   9 C :    0.072513
  10 C :   -0.067564
  11 C :    0.020018
  12 H :    0.039370
  13 H :    0.040989
  14 O :   -0.096219
  15 C :    0.085176
  16 C :   -0.060138
  17 C :   -0.048519
  18 C :   -0.066605
  19 H :    0.023392
  20 H :    0.027773
  21 H :    0.024882
  22 H :    0.023054
  23 H :    0.021791
  24 H :    0.025328
  25 H :    0.029320
  26 H :    0.021638
  27 H :    0.022299
  28 H :    0.022537
  29 H :    0.030207
  30 H :    0.012458
  31 H :    0.021922
  32 H :    0.008324
  33 H :    0.029355
  34 H :    0.019834
  35 H :    0.022673
  36 H :    0.023382
  37 H :    0.023346
  38 H :    0.027179
  39 H :    0.022958

-------------------------------
LOEWDIN REDUCED ORBITAL CHARGES
-------------------------------
  0 C s       :     2.838130  s :     2.838130
      pz      :     1.065387  p :     3.156744
      px      :     1.027157
      py      :     1.064200
      dz2     :     0.009761  d :     0.071699
      dxz     :     0.015332
      dyz     :     0.016726
      dx2y2   :     0.016652
      dxy     :     0.013228
  1 C s       :     2.833832  s :     2.833832
      pz      :     1.039541  p :     3.124882
      px      :     1.020205
      py      :     1.065136
      dz2     :     0.013246  d :     0.088578
      dxz     :     0.019363
      dyz     :     0.022951
      dx2y2   :     0.019040
      dxy     :     0.013979
  2 C s       :     2.845002  s :     2.845002
      pz      :     1.045316  p :     3.133044
      px      :     1.035301
      py      :     1.052427
      dz2     :     0.013271  d :     0.087331
      dxz     :     0.021398
      dyz     :     0.020908
      dx2y2   :     0.014209
      dxy     :     0.017545
  3 C s       :     2.843232  s :     2.843232
      pz      :     1.015018  p :     2.938145
      px      :     1.050187
      py      :     0.872939
      dz2     :     0.023932  d :     0.146598
      dxz     :     0.023694
      dyz     :     0.034015
      dx2y2   :     0.028686
      dxy     :     0.036271
  4 O s       :     3.451157  s :     3.451157
      pz      :     1.660501  p :     4.692814
      px      :     1.761546
      py      :     1.270767
      dz2     :     0.003454  d :     0.028917
      dxz     :     0.003129
      dyz     :     0.011451
      dx2y2   :     0.005363
      dxy     :     0.005521
  5 C s       :     2.833167  s :     2.833167
      pz      :     1.009154  p :     2.937262
      px      :     1.002926
      py      :     0.925182
      dz2     :     0.035702  d :     0.147694
      dxz     :     0.014747
      dyz     :     0.023816
      dx2y2   :     0.036334
      dxy     :     0.037095
  6 C s       :     2.862844  s :     2.862844
      pz      :     1.079828  p :     3.135657
      px      :     1.048966
      py      :     1.006863
      dz2     :     0.029577  d :     0.103470
      dxz     :     0.037704
      dyz     :     0.011558
      dx2y2   :     0.014109
      dxy     :     0.010522
  7 C s       :     2.856081  s :     2.856081
      pz      :     1.046604  p :     2.987797
      px      :     1.009488
      py      :     0.931706
      dz2     :     0.032046  d :     0.135071
      dxz     :     0.049770
      dyz     :     0.005602
      dx2y2   :     0.025039
      dxy     :     0.022614
  8 N s       :     3.198091  s :     3.198091
      pz      :     1.370884  p :     3.866513
      px      :     1.312131
      py      :     1.183499
      dz2     :     0.021396  d :     0.058920
      dxz     :     0.012118
      dyz     :     0.007096
      dx2y2   :     0.010848
      dxy     :     0.007462
  9 C s       :     2.827643  s :     2.827643
      pz      :     1.059319  p :     2.872104
      px      :     0.904278
      py      :     0.908507
      dz2     :     0.058553  d :     0.227739
      dxz     :     0.075414
      dyz     :     0.022723
      dx2y2   :     0.034711
      dxy     :     0.036338
 10 C s       :     2.863299  s :     2.863299
      pz      :     1.038765  p :     3.118051
      px      :     1.060078
      py      :     1.019208
      dz2     :     0.020783  d :     0.086215
      dxz     :     0.036318
      dyz     :     0.004978
      dx2y2   :     0.013231
      dxy     :     0.010905
 11 C s       :     2.860483  s :     2.860483
      pz      :     1.055101  p :     3.026206
      px      :     1.061611
      py      :     0.909493
      dz2     :     0.023315  d :     0.093294
      dxz     :     0.035695
      dyz     :     0.009618
      dx2y2   :     0.012715
      dxy     :     0.011951
 12 H s       :     0.893677  s :     0.893677
      pz      :     0.029545  p :     0.066953
      px      :     0.025390
      py      :     0.012019
 13 H s       :     0.889530  s :     0.889530
      pz      :     0.039308  p :     0.069481
      px      :     0.014888
      py      :     0.015286
 14 O s       :     3.423794  s :     3.423794
      pz      :     1.613577  p :     4.640993
      px      :     1.280155
      py      :     1.747261
      dz2     :     0.006187  d :     0.031433
      dxz     :     0.010216
      dyz     :     0.002247
      dx2y2   :     0.007764
      dxy     :     0.005019
 15 C s       :     2.844189  s :     2.844189
      pz      :     0.938280  p :     2.932879
      px      :     0.937283
      py      :     1.057316
      dz2     :     0.023131  d :     0.137756
      dxz     :     0.037858
      dyz     :     0.030436
      dx2y2   :     0.027243
      dxy     :     0.019088
 16 C s       :     2.842489  s :     2.842489
      pz      :     1.044454  p :     3.130402
      px      :     1.067933
      py      :     1.018016
      dz2     :     0.011095  d :     0.087247
      dxz     :     0.023445
      dyz     :     0.019635
      dx2y2   :     0.023575
      dxy     :     0.009497
 17 C s       :     2.835344  s :     2.835344
      pz      :     1.044011  p :     3.124141
      px      :     1.062992
      py      :     1.017138
      dz2     :     0.010907  d :     0.089033
      dxz     :     0.023530
      dyz     :     0.021175
      dx2y2   :     0.022681
      dxy     :     0.010741
 18 C s       :     2.838474  s :     2.838474
      pz      :     1.063677  p :     3.156471
      px      :     1.066682
      py      :     1.026113
      dz2     :     0.007348  d :     0.071659
      dxz     :     0.017831
      dyz     :     0.018084
      dx2y2   :     0.018696
      dxy     :     0.009699
 19 H s       :     0.912381  s :     0.912381
      pz      :     0.025643  p :     0.064227
      px      :     0.025679
      py      :     0.012905
 20 H s       :     0.907803  s :     0.907803
      pz      :     0.028544  p :     0.064424
      px      :     0.013766
      py      :     0.022113
 21 H s       :     0.910463  s :     0.910463
      pz      :     0.016495  p :     0.064655
      px      :     0.033130
      py      :     0.015031
 22 H s       :     0.911042  s :     0.911042
      pz      :     0.026597  p :     0.065904
      px      :     0.026056
      py      :     0.013251
 23 H s       :     0.913884  s :     0.913884
      pz      :     0.017723  p :     0.064325
      px      :     0.032231
      py      :     0.014371
 24 H s       :     0.907005  s :     0.907005
      pz      :     0.018536  p :     0.067666
      px      :     0.034336
      py      :     0.014794
 25 H s       :     0.905410  s :     0.905410
      pz      :     0.026438  p :     0.065270
      px      :     0.026037
      py      :     0.012795
 26 H s       :     0.910815  s :     0.910815
      pz      :     0.031676  p :     0.067547
      px      :     0.013469
      py      :     0.022403
 27 H s       :     0.914688  s :     0.914688
      pz      :     0.013923  p :     0.063013
      px      :     0.032599
      py      :     0.016491
 28 H s       :     0.912976  s :     0.912976
      pz      :     0.041502  p :     0.064486
      px      :     0.010157
      py      :     0.012828
 29 H s       :     0.907011  s :     0.907011
      pz      :     0.013309  p :     0.062782
      px      :     0.019218
      py      :     0.030254
 30 H s       :     0.923785  s :     0.923785
      pz      :     0.042445  p :     0.063757
      px      :     0.011710
      py      :     0.009603
 31 H s       :     0.915908  s :     0.915908
      pz      :     0.019898  p :     0.062170
      px      :     0.023309
      py      :     0.018963
 32 H s       :     0.928603  s :     0.928603
      pz      :     0.035603  p :     0.063073
      px      :     0.018746
      py      :     0.008724
 33 H s       :     0.905206  s :     0.905206
      pz      :     0.019850  p :     0.065439
      px      :     0.013571
      py      :     0.032018
 34 H s       :     0.913177  s :     0.913177
      pz      :     0.022605  p :     0.066989
      px      :     0.022280
      py      :     0.022104
 35 H s       :     0.912850  s :     0.912850
      pz      :     0.019203  p :     0.064477
      px      :     0.017665
      py      :     0.027609
 36 H s       :     0.909196  s :     0.909196
      pz      :     0.022630  p :     0.067422
      px      :     0.013038
      py      :     0.031753
 37 H s       :     0.911825  s :     0.911825
      pz      :     0.017451  p :     0.064829
      px      :     0.018283
      py      :     0.029095
 38 H s       :     0.908358  s :     0.908358
      pz      :     0.032459  p :     0.064463
      px      :     0.018534
      py      :     0.013469
 39 H s       :     0.912777  s :     0.912777
      pz      :     0.022112  p :     0.064265
      px      :     0.012929
      py      :     0.029224


                      *****************************
                      * MAYER POPULATION ANALYSIS *
                      *****************************

  NA   - Mulliken gross atomic population
  ZA   - Total nuclear charge
  QA   - Mulliken gross atomic charge
  VA   - Mayer's total valence
  BVA  - Mayer's bonded valence
  FA   - Mayer's free valence

  ATOM       NA         ZA         QA         VA         BVA        FA
  0 C      6.0537     6.0000    -0.0537     4.0114     4.0114     0.0000
  1 C      6.0708     6.0000    -0.0708     4.0543     4.0543    -0.0000
  2 C      6.0877     6.0000    -0.0877     3.9847     3.9847     0.0000
  3 C      5.8105     6.0000     0.1895     4.0294     4.0294     0.0000
  4 O      8.4093     8.0000    -0.4093     2.0752     2.0752     0.0000
  5 C      5.6919     6.0000     0.3081     3.9415     3.9415     0.0000
  6 C      6.2110     6.0000    -0.2110     3.9043     3.9043    -0.0000
  7 C      5.9592     6.0000     0.0408     4.0447     4.0447     0.0000
  8 N      7.1658     7.0000    -0.1658     3.1389     3.1389    -0.0000
  9 C      5.8347     6.0000     0.1653     4.1183     4.1183    -0.0000
 10 C      6.0522     6.0000    -0.0522     3.8591     3.8591     0.0000
 11 C      5.9451     6.0000     0.0549     3.9113     3.9113    -0.0000
 12 H      0.9668     1.0000     0.0332     0.9963     0.9963    -0.0000
 13 H      0.9726     1.0000     0.0274     0.9996     0.9996     0.0000
 14 O      8.3334     8.0000    -0.3334     2.1779     2.1779    -0.0000
 15 C      5.7792     6.0000     0.2208     3.9487     3.9487     0.0000
 16 C      6.1070     6.0000    -0.1070     4.0285     4.0285    -0.0000
 17 C      6.0835     6.0000    -0.0835     4.0595     4.0595     0.0000
 18 C      6.0401     6.0000    -0.0401     4.0002     4.0002    -0.0000
 19 H      0.9732     1.0000     0.0268     0.9879     0.9879     0.0000
 20 H      0.9638     1.0000     0.0362     0.9852     0.9852    -0.0000
 21 H      0.9709     1.0000     0.0291     0.9958     0.9958    -0.0000
 22 H      0.9670     1.0000     0.0330     0.9908     0.9908     0.0000
 23 H      0.9802     1.0000     0.0198     0.9782     0.9782     0.0000
 24 H      0.9625     1.0000     0.0375     1.0086     1.0086     0.0000
 25 H      0.9728     1.0000     0.0272     0.9843     0.9843     0.0000
 26 H      0.9567     1.0000     0.0433     1.0058     1.0058     0.0000
 27 H      0.9719     1.0000     0.0281     0.9869     0.9869    -0.0000
 28 H      0.9788     1.0000     0.0212     0.9965     0.9965     0.0000
 29 H      0.9608     1.0000     0.0392     0.9843     0.9843    -0.0000
 30 H      0.9966     1.0000     0.0034     0.9980     0.9980    -0.0000
 31 H      0.9731     1.0000     0.0269     0.9863     0.9863     0.0000
 32 H      0.9861     1.0000     0.0139     0.9804     0.9804     0.0000
 33 H      0.9710     1.0000     0.0290     0.9813     0.9813    -0.0000
 34 H      0.9890     1.0000     0.0110     1.0037     1.0037    -0.0000
 35 H      0.9768     1.0000     0.0232     0.9773     0.9773     0.0000
 36 H      0.9677     1.0000     0.0323     1.0034     1.0034    -0.0000
 37 H      0.9719     1.0000     0.0281     1.0048     1.0048     0.0000
 38 H      0.9642     1.0000     0.0358     0.9863     0.9863     0.0000
 39 H      0.9707     1.0000     0.0293     0.9853     0.9853     0.0000

  Mayer bond orders larger than 0.100000
B(  0-C ,  1-C ) :   1.0900 B(  0-C , 37-H ) :   0.9704 B(  0-C , 38-H ) :   0.9716 
B(  0-C , 39-H ) :   0.9715 B(  1-C ,  2-C ) :   1.0435 B(  1-C , 35-H ) :   0.9534 
B(  1-C , 36-H ) :   0.9495 B(  2-C ,  3-C ) :   1.0637 B(  2-C , 33-H ) :   0.9409 
B(  2-C , 34-H ) :   0.9453 B(  3-C ,  4-O ) :   0.9900 B(  3-C , 31-H ) :   0.9557 
B(  3-C , 32-H ) :   0.9539 B(  4-O ,  5-C ) :   1.0189 B(  5-C ,  6-C ) :   1.0114 
B(  5-C , 29-H ) :   0.9420 B(  5-C , 30-H ) :   0.9389 B(  6-C ,  7-C ) :   1.4380 
B(  6-C , 11-C ) :   1.3482 B(  7-C ,  8-N ) :   1.4723 B(  7-C , 28-H ) :   0.9790 
B(  8-N ,  9-C ) :   1.4856 B(  9-C , 10-C ) :   1.2959 B(  9-C , 14-O ) :   1.1628 
B( 10-C , 11-C ) :   1.4801 B( 10-C , 13-H ) :   0.9803 B( 11-C , 12-H ) :   0.9792 
B( 14-O , 15-C ) :   0.9120 B( 15-C , 16-C ) :   1.0862 B( 15-C , 26-H ) :   0.9493 
B( 15-C , 27-H ) :   0.9549 B( 16-C , 17-C ) :   1.0490 B( 16-C , 24-H ) :   0.9430 
B( 16-C , 25-H ) :   0.9455 B( 17-C , 18-C ) :   1.0891 B( 17-C , 22-H ) :   0.9530 
B( 17-C , 23-H ) :   0.9556 B( 18-C , 19-H ) :   0.9735 B( 18-C , 20-H ) :   0.9740 
B( 18-C , 21-H ) :   0.9718 

-------
TIMINGS
-------

Total SCF time: 0 days 0 hours 3 min 36 sec 

Total time                  ....     216.320 sec
Sum of individual times     ....     216.017 sec  ( 99.9%)

Fock matrix formation       ....     211.516 sec  ( 97.8%)
  XC integration            ....       7.875 sec  (  3.7% of F)
    Basis function eval.    ....       2.450 sec  ( 31.1% of XC)
    Density eval.           ....       1.764 sec  ( 22.4% of XC)
    XC-Functional eval.     ....       1.633 sec  ( 20.7% of XC)
    XC-Potential eval.      ....       1.803 sec  ( 22.9% of XC)
Diagonalization             ....       0.022 sec  (  0.0%)
Density matrix formation    ....       0.017 sec  (  0.0%)
Population analysis         ....       0.018 sec  (  0.0%)
Initial guess               ....       0.021 sec  (  0.0%)
Orbital Transformation      ....       0.000 sec  (  0.0%)
Orbital Orthonormalization  ....       0.016 sec  (  0.0%)
DIIS solution               ....       0.006 sec  (  0.0%)
SOSCF solution              ....       0.076 sec  (  0.0%)
Grid generation             ....       4.339 sec  (  2.0%)


-------------------------------------------------------------------------------
                          DFT DISPERSION CORRECTION                            
                                                                               
                              DFTD3 V3.1  Rev 1                                
                              USING zero damping                               
-------------------------------------------------------------------------------
The omegaB97X-D3 functional is recognized. Fit by Chai et al.
Active option DFTDOPT                   ...         3   

molecular C6(AA) [au] = 13090.810819 


            DFT-D V3
 parameters
 s6 scaling factor         :     1.0000 
 rs6 scaling factor        :     1.2810 
 s8 scaling factor         :     1.0000 
 rs8 scaling factor        :     1.0940 
 Damping factor alpha6     :    14.0000 
 Damping factor alpha8     :    16.0000 
 ad hoc parameters k1-k3   :    16.0000     1.3333    -4.0000 

 Edisp/kcal,au: -12.555146492156  -0.020007897365 
 E6   /kcal   :  -5.981606323 
 E8   /kcal   :  -6.573540169 
 % E8         :  52.357335482 

-------------------------   ----------------
Dispersion correction           -0.020007897
-------------------------   ----------------


-------------------------   --------------------
FINAL SINGLE POINT ENERGY      -751.802664933427
-------------------------   --------------------

                                *** OPTIMIZATION RUN DONE ***

                            ***************************************
                            *     ORCA property calculations      *
                            ***************************************

                                    ---------------------
                                    Active property flags
                                    ---------------------
   (+) Dipole Moment


------------------------------------------------------------------------------
                       ORCA ELECTRIC PROPERTIES CALCULATION
------------------------------------------------------------------------------

Dipole Moment Calculation                       ... on
Quadrupole Moment Calculation                   ... off
Polarizability Calculation                      ... off
GBWName                                         ... 019016745.gbw
Electron density file                           ... 019016745.scfp
The origin for moment calculation is the CENTER OF MASS  = (-0.010941, -0.021702 -0.009739)

-------------
DIPOLE MOMENT
-------------
                                X             Y             Z
Electronic contribution:      6.77278     -17.67769      -2.18450
Nuclear contribution   :     -6.69472      17.86360       2.44465
                        -----------------------------------------
Total Dipole Moment    :      0.07806       0.18592       0.26015
                        -----------------------------------------
Magnitude (a.u.)       :      0.32914
Magnitude (Debye)      :      0.83662



--------------------
Rotational spectrum 
--------------------
 
Rotational constants in cm-1:     0.023196     0.009686     0.007738 
Rotational constants in MHz :   695.385441   290.390019   231.985800 

 Dipole components along the rotational axes: 
x,y,z [a.u.] :     0.081961    -0.188123     0.257348 
x,y,z [Debye]:     0.208328    -0.478171     0.654126 

 

Timings for individual modules:

Sum of individual times         ...     6499.370 sec (= 108.323 min)
GTO integral calculation        ...        5.628 sec (=   0.094 min)   0.1 %
SCF iterations                  ...     4217.494 sec (=  70.292 min)  64.9 %
SCF Gradient evaluation         ...     2272.222 sec (=  37.870 min)  35.0 %
Geometry relaxation             ...        4.026 sec (=   0.067 min)   0.1 %
                             ****ORCA TERMINATED NORMALLY****
TOTAL RUN TIME: 0 days 1 hours 48 minutes 22 seconds 527 msec
