
                                 *****************
                                 * O   R   C   A *
                                 *****************

           --- An Ab Initio, DFT and Semiempirical electronic structure package ---

                  #######################################################
                  #                        -***-                        #
                  #          Department of theory and spectroscopy      #
                  #               Directorship: Frank Neese             #
                  #        Max Planck Institute fuer Kohlenforschung    #
                  #                Kaiser Wilhelm Platz 1               #
                  #                 D-45470 Muelheim/Ruhr               #
                  #                      Germany                        #
                  #                                                     #
                  #                  All rights reserved                #
                  #                        -***-                        #
                  #######################################################


                         Program Version 4.2.0 -  RELEASE  -


 With contributions from (in alphabetic order):
   Daniel Aravena         : Magnetic Suceptibility
   Michael Atanasov       : Ab Initio Ligand Field Theory (pilot matlab implementation)
   Alexander A. Auer      : GIAO ZORA, VPT2
   Ute Becker             : Parallelization
   Giovanni Bistoni       : ED, misc. LED, open-shell LED, HFLED
   Martin Brehm           : Molecular dynamics
   Dmytro Bykov           : SCF Hessian
   Vijay G. Chilkuri      : MRCI spin determinant printing, contributions to CSF-ICE
   Dipayan Datta          : RHF DLPNO-CCSD density
   Achintya Kumar Dutta   : EOM-CC, STEOM-CC
   Dmitry Ganyushin       : Spin-Orbit,Spin-Spin,Magnetic field MRCI
   Miquel Garcia          : C-PCM Hessian, Gaussian charge scheme
   Yang Guo               : DLPNO-NEVPT2, CIM, IAO-localization
   Andreas Hansen         : Spin unrestricted coupled pair/coupled cluster methods
   Benjamin Helmich-Paris : CASSCF linear response (MC-RPA)
   Lee Huntington         : MR-EOM, pCC
   Robert Izsak           : Overlap fitted RIJCOSX, COSX-SCS-MP3, EOM
   Christian Kollmar      : KDIIS, OOCD, Brueckner-CCSD(T), CCSD density
   Simone Kossmann        : Meta GGA functionals, TD-DFT gradient, OOMP2, MP2 Hessian
   Martin Krupicka        : AUTO-CI
   Lucas Lang             : DCDCAS
   Dagmar Lenk            : GEPOL surface, SMD
   Dimitrios Liakos       : Extrapolation schemes; Compound Job, initial MDCI parallelization
   Dimitrios Manganas     : Further ROCIS development; embedding schemes
   Dimitrios Pantazis     : SARC Basis sets
   Taras Petrenko         : DFT Hessian,TD-DFT gradient, ASA, ECA, R-Raman, ABS, FL, XAS/XES, NRVS
   Peter Pinski           : DLPNO-MP2, DLPNO-MP2 Gradient
   Christoph Reimann      : Effective Core Potentials
   Marius Retegan         : Local ZFS, SOC
   Christoph Riplinger    : Optimizer, TS searches, QM/MM, DLPNO-CCSD(T), (RO)-DLPNO pert. Triples
   Tobias Risthaus        : Range-separated hybrids, TD-DFT gradient, RPA, STAB
   Michael Roemelt        : Original ROCIS implementation
   Masaaki Saitow         : Open-shell DLPNO-CCSD energy and density
   Barbara Sandhoefer     : DKH picture change effects
   Avijit Sen             : IP-ROCIS
   Kantharuban Sivalingam : CASSCF convergence, NEVPT2, FIC-MRCI
   Bernardo de Souza      : ESD, SOC TD-DFT
   Georgi Stoychev        : AutoAux, RI-MP2 NMR
   Willem Van den Heuvel  : Paramagnetic NMR
   Boris Wezisla          : Elementary symmetry handling
   Frank Wennmohs         : Technical directorship


 We gratefully acknowledge several colleagues who have allowed us to
 interface, adapt or use parts of their codes:
   Stefan Grimme, W. Hujo, H. Kruse,             : VdW corrections, initial TS optimization,
                  C. Bannwarth                     DFT functionals, gCP, sTDA/sTD-DF
   Ed Valeev, F. Pavosevic, A. Kumar             : LibInt (2-el integral package), F12 methods
   Garnet Chan, S. Sharma, J. Yang, R. Olivares  : DMRG
   Ulf Ekstrom                                   : XCFun DFT Library
   Mihaly Kallay                                 : mrcc  (arbitrary order and MRCC methods)
   Andreas Klamt, Michael Diedenhofen            : otool_cosmo (COSMO solvation model)
   Jiri Pittner, Ondrej Demel                    : Mk-CCSD
   Frank Weinhold                                : gennbo (NPA and NBO analysis)
   Christopher J. Cramer and Donald G. Truhlar   : smd solvation model
   Lars Goerigk                                  : TD-DFT with DH, B97 family of functionals
   V. Asgeirsson, H. Jonsson                     : NEB implementation
   FAccTs GmbH                                   : IRC, NEB, NEB-TS, Multilevel, MM, QM/MM, CI optimization
   S Lehtola, MJT Oliveira, MAL Marques          : LibXC Library


 Your calculation uses the libint2 library for the computation of 2-el integrals
 For citations please refer to: http://libint.valeyev.net

 Your ORCA version has been built with support for libXC version: 4.2.3
 For citations please refer to: https://tddft.org/programs/libxc/

 This ORCA versions uses:
   CBLAS   interface :  Fast vector & matrix operations
   LAPACKE interface :  Fast linear algebra routines
   SCALAPACK package :  Parallel linear algebra routines


Your calculation utilizes the atom-pairwise dispersion correction
with the zero-damping scheme (D30)
Cite in your paper:
S.Grimme, J.Antony, S.Ehrlich and H.Krieg, J.Chem.Phys., 132, (2010), 154104 
   

XCFun DFT library Copyright 2009-2010 Ulf Ekstrom and contributors.
See http://admol.org/xcfun for more information. This is free soft-
ware; see the source code for copying conditions. There is ABSOLUTELY
NO WARRANTY; not even for MERCHANTABILITY or FITNESS FOR A PARTICULAR
PURPOSE. For details see the documentation. Scientific users of this 
library should cite U. Ekstrom, L. Visscher, R. Bast, A. J. Thorvald-
sen and K. Ruud; J.Chem.Theor.Comp. 2010, DOI: 10.1021/ct100117s
XCFun Version 0.99 
----- Orbital basis set information -----
Your calculation utilizes the basis: def2-SVP
   F. Weigend and R. Ahlrichs, Phys. Chem. Chem. Phys. 7, 3297 (2005).

================================================================================
                                        WARNINGS
                       Please study these warnings very carefully!
================================================================================


WARNING: Geometry Optimization
  ===> : Switching off AutoStart
         For restart on a previous wavefunction, please use MOREAD

INFO   : the flag for use of LIBINT has been found!

================================================================================
                                       INPUT FILE
================================================================================
NAME = 057465459.inp
|  1> # ORCA input file
|  2> # -34.77768995
|  3> ! wB97X-D3 def2-SVP Opt
|  4> * xyz 0 1
|  5>    C       -3.57230        -1.43370         0.00610
|  6>    H       -3.51940        -2.03820        -0.90720
|  7>    O       -2.57570        -0.44440         0.01910
|  8>    C       -1.27270        -0.96930        -0.01480
|  9>    C       -0.31170         0.15960        -0.00720
| 10>    C        1.06750         0.12220        -0.00220
| 11>    N        1.66780         1.34170         0.00270
| 12>    C        0.81230         2.28780         0.00170
| 13>    S       -0.86040         1.78260        -0.00470
| 14>    H        1.07240         3.32710         0.00490
| 15>    C        1.83730        -1.12480        -0.00090
| 16>    O        1.33400        -2.22590        -0.01260
| 17>    O        3.15580        -0.93380         0.01570
| 18>    H        3.61470        -1.78870         0.01550
| 19>    H       -1.11240        -1.58520        -0.91590
| 20>    H       -1.08120        -1.62500         0.85120
| 21>    H       -4.52540        -0.91060         0.04290
| 22>    H       -3.48350        -2.09770         0.87420
| 23> *
| 24> 
| 25>                          ****END OF INPUT****
================================================================================

                       *****************************
                       * Geometry Optimization Run *
                       *****************************

Geometry optimization settings:
Update method            Update   .... BFGS
Choice of coordinates    CoordSys .... Z-matrix Internals
Initial Hessian          InHess   .... Almoef's Model

Convergence Tolerances:
Energy Change            TolE     ....  5.0000e-06 Eh
Max. Gradient            TolMAXG  ....  3.0000e-04 Eh/bohr
RMS Gradient             TolRMSG  ....  1.0000e-04 Eh/bohr
Max. Displacement        TolMAXD  ....  4.0000e-03 bohr
RMS Displacement         TolRMSD  ....  2.0000e-03 bohr
Strict Convergence                ....  False
------------------------------------------------------------------------------
                        ORCA OPTIMIZATION COORDINATE SETUP
------------------------------------------------------------------------------

The optimization will be done in new redundant internal coordinates
Making redundant internal coordinates   ...  (new redundants) done
Evaluating the initial hessian          ...  (Almloef) done
Evaluating the coordinates              ...  done
Calculating the B-matrix                .... done
Calculating the G-matrix                .... done
Diagonalizing the G-matrix              .... done
Small eigenvalue found = 1.067e-02
The first mode is                       ....   28
The number of degrees of freedom        ....   48

    -----------------------------------------------------------------
                    Redundant Internal Coordinates


    -----------------------------------------------------------------
         Definition                    Initial Value    Approx d2E/dq
    -----------------------------------------------------------------
      1. B(H   1,C   0)                  1.0965         0.351589   
      2. B(O   2,C   0)                  1.4043         0.530933   
      3. B(C   3,O   2)                  1.4052         0.529281   
      4. B(C   4,C   3)                  1.4826         0.444692   
      5. B(C   5,C   4)                  1.3797         0.648852   
      6. B(N   6,C   5)                  1.3593         0.626517   
      7. B(C   7,N   6)                  1.2755         0.852117   
      8. B(S   8,C   7)                  1.7473         0.453310   
      9. B(S   8,C   4)                  1.7132         0.513795   
     10. B(H   9,C   7)                  1.0714         0.385626   
     11. B(C  10,C   5)                  1.4655         0.473512   
     12. B(O  11,C  10)                  1.2107         1.081155   
     13. B(O  12,C  10)                  1.3324         0.691556   
     14. B(H  13,O  12)                  0.9703         0.500686   
     15. B(H  14,C   3)                  1.1032         0.343078   
     16. B(H  15,C   3)                  1.1030         0.343329   
     17. B(H  16,C   0)                  1.0878         0.362974   
     18. B(H  17,C   0)                  1.0965         0.351564   
     19. A(H   1,C   0,O   2)          111.2135         0.340345   
     20. A(O   2,C   0,H  16)          106.4217         0.342165   
     21. A(O   2,C   0,H  17)          111.2102         0.340341   
     22. A(H   1,C   0,H  17)          108.7633         0.288663   
     23. A(H   1,C   0,H  16)          109.6055         0.290111   
     24. A(H  16,C   0,H  17)          109.5942         0.290108   
     25. A(C   0,O   2,C   3)          113.2469         0.405177   
     26. A(O   2,C   3,C   4)          108.4520         0.395264   
     27. A(O   2,C   3,H  15)          111.3537         0.338820   
     28. A(C   4,C   3,H  15)          109.6395         0.331158   
     29. A(C   4,C   3,H  14)          109.5794         0.331118   
     30. A(H  14,C   3,H  15)          106.5109         0.286496   
     31. A(O   2,C   3,H  14)          111.2846         0.338779   
     32. A(C   3,C   4,S   8)          120.9140         0.417270   
     33. A(C   3,C   4,C   5)          128.8539         0.412374   
     34. A(C   5,C   4,S   8)          110.2321         0.446577   
     35. A(N   6,C   5,C  10)          122.1028         0.411735   
     36. A(C   4,C   5,C  10)          123.2412         0.417003   
     37. A(C   4,C   5,N   6)          114.6559         0.435587   
     38. A(C   5,N   6,C   7)          111.6698         0.454605   
     39. A(S   8,C   7,H   9)          120.8566         0.356221   
     40. A(N   6,C   7,H   9)          123.8280         0.374665   
     41. A(N   6,C   7,S   8)          115.3154         0.455655   
     42. A(C   4,S   8,C   7)           88.1268         0.441845   
     43. A(C   5,C  10,O  11)          123.7451         0.454156   
     44. A(O  11,C  10,O  12)          122.8108         0.483568   
     45. A(C   5,C  10,O  12)          113.4441         0.419031   
     46. A(C  10,O  12,H  13)          109.9820         0.374700   
     47. D(C   3,O   2,C   0,H  17)     60.2538         0.022389   
     48. D(C   3,O   2,C   0,H   1)    -61.1283         0.022389   
     49. D(C   3,O   2,C   0,H  16)    179.5550         0.022389   
     50. D(H  15,C   3,O   2,C   0)    -59.6777         0.022244   
     51. D(H  14,C   3,O   2,C   0)     58.9942         0.022244   
     52. D(C   4,C   3,O   2,C   0)    179.5996         0.022244   
     53. D(C   5,C   4,C   3,O   2)    178.4146         0.014587   
     54. D(S   8,C   4,C   3,H  14)    120.0233         0.014587   
     55. D(S   8,C   4,C   3,H  15)   -123.4125         0.014587   
     56. D(S   8,C   4,C   3,O   2)     -1.6338         0.014587   
     57. D(C   5,C   4,C   3,H  15)     56.6359         0.014587   
     58. D(C   5,C   4,C   3,H  14)    -59.9282         0.014587   
     59. D(C  10,C   5,C   4,C   3)     -0.1346         0.029306   
     60. D(N   6,C   5,C   4,S   8)     -0.0337         0.029306   
     61. D(N   6,C   5,C   4,C   3)    179.9221         0.029306   
     62. D(C  10,C   5,C   4,S   8)    179.9097         0.029306   
     63. D(C   7,N   6,C   5,C  10)   -179.9408         0.028843   
     64. D(C   7,N   6,C   5,C   4)      0.0033         0.028843   
     65. D(H   9,C   7,N   6,C   5)   -179.9960         0.056846   
     66. D(S   8,C   7,N   6,C   5)      0.0292         0.056846   
     67. D(C   4,S   8,C   7,H   9)    179.9835         0.004518   
     68. D(C   4,S   8,C   7,N   6)     -0.0409         0.004518   
     69. D(C   7,S   8,C   4,C   5)      0.0394         0.005423   
     70. D(C   7,S   8,C   4,C   3)   -179.9204         0.005423   
     71. D(O  12,C  10,C   5,N   6)      0.4803         0.015266   
     72. D(O  12,C  10,C   5,C   4)   -179.4589         0.015266   
     73. D(O  11,C  10,C   5,N   6)   -179.5759         0.015266   
     74. D(O  11,C  10,C   5,C   4)      0.4849         0.015266   
     75. D(H  13,O  12,C  10,O  11)      0.0736         0.035732   
     76. D(H  13,O  12,C  10,C   5)   -179.9820         0.035732   
    -----------------------------------------------------------------

Number of atoms                         .... 18
Number of degrees of freedom            .... 76

         *************************************************************
         *                GEOMETRY OPTIMIZATION CYCLE   1            *
         *************************************************************
---------------------------------
CARTESIAN COORDINATES (ANGSTROEM)
---------------------------------
  C     -3.572300   -1.433700    0.006100
  H     -3.519400   -2.038200   -0.907200
  O     -2.575700   -0.444400    0.019100
  C     -1.272700   -0.969300   -0.014800
  C     -0.311700    0.159600   -0.007200
  C      1.067500    0.122200   -0.002200
  N      1.667800    1.341700    0.002700
  C      0.812300    2.287800    0.001700
  S     -0.860400    1.782600   -0.004700
  H      1.072400    3.327100    0.004900
  C      1.837300   -1.124800   -0.000900
  O      1.334000   -2.225900   -0.012600
  O      3.155800   -0.933800    0.015700
  H      3.614700   -1.788700    0.015500
  H     -1.112400   -1.585200   -0.915900
  H     -1.081200   -1.625000    0.851200
  H     -4.525400   -0.910600    0.042900
  H     -3.483500   -2.097700    0.874200

----------------------------
CARTESIAN COORDINATES (A.U.)
----------------------------
  NO LB      ZA    FRAG     MASS         X           Y           Z
   0 C     6.0000    0    12.011   -6.750669   -2.709300    0.011527
   1 H     1.0000    0     1.008   -6.650702   -3.851640   -1.714360
   2 O     8.0000    0    15.999   -4.867368   -0.839794    0.036094
   3 C     6.0000    0    12.011   -2.405054   -1.831712   -0.027968
   4 C     6.0000    0    12.011   -0.589028    0.301600   -0.013606
   5 C     6.0000    0    12.011    2.017283    0.230925   -0.004157
   6 N     7.0000    0    14.007    3.151685    2.535446    0.005102
   7 C     6.0000    0    12.011    1.535025    4.323315    0.003213
   8 S    16.0000    0    32.060   -1.625920    3.368626   -0.008882
   9 H     1.0000    0     1.008    2.026542    6.287308    0.009260
  10 C     6.0000    0    12.011    3.471994   -2.125564   -0.001701
  11 O     8.0000    0    15.999    2.520895   -4.206341   -0.023811
  12 O     8.0000    0    15.999    5.963598   -1.764626    0.029669
  13 H     1.0000    0     1.008    6.830793   -3.380153    0.029291
  14 H     1.0000    0     1.008   -2.102131   -2.995594   -1.730800
  15 H     1.0000    0     1.008   -2.043172   -3.070805    1.608535
  16 H     1.0000    0     1.008   -8.551767   -1.720785    0.081069
  17 H     1.0000    0     1.008   -6.582861   -3.964079    1.651999

--------------------------------
INTERNAL COORDINATES (ANGSTROEM)
--------------------------------
 C      0   0   0     0.000000000000     0.00000000     0.00000000
 H      1   0   0     1.096510624664     0.00000000     0.00000000
 O      1   2   0     1.404313017101   111.21353536     0.00000000
 C      3   1   2     1.405161279000   113.24693135   298.87167084
 C      4   3   1     1.482563310621   108.45197436   179.59962109
 C      5   4   3     1.379716057745   128.85393106   178.41456950
 N      6   5   4     1.359251393231   114.65592116   179.92206307
 C      7   6   5     1.275533794143   111.66981216     0.00000000
 S      5   4   3     1.713244565145   120.91397454   358.36616052
 H      8   7   6     1.071357428686   123.82804526   180.00399018
 C      6   5   4     1.465470139580   123.24120603   359.86542047
 O     11   6   5     1.210730766934   123.74508953     0.48489567
 O     11   6   5     1.332365869422   113.44406052   180.54111606
 H     13  11   6     0.970279990518   109.98197249   180.01797125
 H      4   3   1     1.103181811852   111.28456066    58.99420984
 H      4   3   1     1.102982656255   111.35367040   300.32232288
 H      1   2   3     1.087836136557   109.60549337   117.39820338
 H      1   2   3     1.096530460133   108.76334243   237.19853453

---------------------------
INTERNAL COORDINATES (A.U.)
---------------------------
 C      0   0   0     0.000000000000     0.00000000     0.00000000
 H      1   0   0     2.072104783549     0.00000000     0.00000000
 O      1   2   0     2.653767008622   111.21353536     0.00000000
 C      3   1   2     2.655369991300   113.24693135   298.87167084
 C      4   3   1     2.801638633274   108.45197436   179.59962109
 C      5   4   3     2.607285491712   128.85393106   178.41456950
 N      6   5   4     2.568612880357   114.65592116   179.92206307
 C      7   6   5     2.410409545491   111.66981216     0.00000000
 S      5   4   3     3.237563028554   120.91397454   358.36616052
 H      8   7   6     2.024572131758   123.82804526   180.00399018
 C      6   5   4     2.769337221245   123.24120603   359.86542047
 O     11   6   5     2.287949571417   123.74508953     0.48489567
 O     11   6   5     2.517806603391   113.44406052   180.54111606
 H     13  11   6     1.833563455303   109.98197249   180.01797125
 H      4   3   1     2.084711500322   111.28456066    58.99420984
 H      4   3   1     2.084335150788   111.35367040   300.32232288
 H      1   2   3     2.055712376676   109.60549337   117.39820338
 H      1   2   3     2.072142267154   108.76334243   237.19853453

---------------------
BASIS SET INFORMATION
---------------------
There are 5 groups of distinct atoms

 Group   1 Type C   : 7s4p1d contracted to 3s2p1d pattern {511/31/1}
 Group   2 Type H   : 4s1p contracted to 2s1p pattern {31/1}
 Group   3 Type O   : 7s4p1d contracted to 3s2p1d pattern {511/31/1}
 Group   4 Type N   : 7s4p1d contracted to 3s2p1d pattern {511/31/1}
 Group   5 Type S   : 10s7p1d contracted to 4s3p1d pattern {5311/511/1}

Atom   0C    basis set group =>   1
Atom   1H    basis set group =>   2
Atom   2O    basis set group =>   3
Atom   3C    basis set group =>   1
Atom   4C    basis set group =>   1
Atom   5C    basis set group =>   1
Atom   6N    basis set group =>   4
Atom   7C    basis set group =>   1
Atom   8S    basis set group =>   5
Atom   9H    basis set group =>   2
Atom  10C    basis set group =>   1
Atom  11O    basis set group =>   3
Atom  12O    basis set group =>   3
Atom  13H    basis set group =>   2
Atom  14H    basis set group =>   2
Atom  15H    basis set group =>   2
Atom  16H    basis set group =>   2
Atom  17H    basis set group =>   2
------------------------------------------------------------------------------
                           ORCA GTO INTEGRAL CALCULATION
------------------------------------------------------------------------------

                         BASIS SET STATISTICS AND STARTUP INFO

 # of primitive gaussian shells          ...  173
 # of primitive gaussian functions       ...  325
 # of contracted shells                  ...   89
 # of contracted basis functions         ...  193
 Highest angular momentum                ...    2
 Maximum contraction depth               ...    5
 Integral package used                   ... LIBINT
 Integral threshhold            Thresh   ...  2.500e-11
 Primitive cut-off              TCut     ...  2.500e-12


------------------------------ INTEGRAL EVALUATION ----------------------------


 * One electron integrals 
 Pre-screening matrix                    ... done
 Shell pair data                         ... done (   0.001 sec)

-------------------------------------------------------------------------------
                                 ORCA SCF
-------------------------------------------------------------------------------

------------
SCF SETTINGS
------------
Hamiltonian:
 Density Functional     Method          .... DFT(GTOs)
 Exchange Functional    Exchange        .... WB97X-D3
 Correlation Functional Correlation     .... WB97X-D3
 Gradients option       PostSCFGGA      .... off
 Hybrid DFT is turned on
   Fraction HF Exchange ScalHFX         ....  0.195728
   Scaling of DF-GGA-X  ScalDFX         ....  0.000000
   Scaling of DF-GGA-C  ScalDFC         ....  1.000000
   Scaling of DF-LDA-C  ScalLDAC        ....  1.000000
   Perturbative correction              ....  0.000000
   Density functional embedding theory  .... OFF
 Long-range corrected/Screened/Range-Separated Hybrid DFT is turned on
   Amount of maximum screened exact exchange              ....  0.804272
   Range separation parameter mu (erf(mu*r12)/r12)        ....  0.250000


General Settings:
 Integral files         IntName         .... 057465459
 Hartree-Fock type      HFTyp           .... RHF
 Total Charge           Charge          ....    0
 Multiplicity           Mult            ....    1
 Number of Electrons    NEL             ....   90
 Basis Dimension        Dim             ....  193
 Nuclear Repulsion      ENuc            ....    706.0364821922 Eh

Convergence Acceleration:
 DIIS                   CNVDIIS         .... on
   Start iteration      DIISMaxIt       ....    12
   Startup error        DIISStart       ....  0.200000
   # of expansion vecs  DIISMaxEq       ....     5
   Bias factor          DIISBfac        ....   1.050
   Max. coefficient     DIISMaxC        ....  10.000
 Newton-Raphson         CNVNR           .... off
 SOSCF                  CNVSOSCF        .... on
   Start iteration      SOSCFMaxIt      ....   150
   Startup grad/error   SOSCFStart      ....  0.003300
 Level Shifting         CNVShift        .... on
   Level shift para.    LevelShift      ....    0.2500
   Turn off err/grad.   ShiftErr        ....    0.0010
 Zerner damping         CNVZerner       .... off
 Static damping         CNVDamp         .... on
   Fraction old density DampFac         ....    0.7000
   Max. Damping (<1)    DampMax         ....    0.9800
   Min. Damping (>=0)   DampMin         ....    0.0000
   Turn off err/grad.   DampErr         ....    0.1000
 Fernandez-Rico         CNVRico         .... off

SCF Procedure:
 Maximum # iterations   MaxIter         ....   125
 SCF integral mode      SCFMode         .... Direct
   Integral package                     .... LIBINT
 Reset frequency        DirectResetFreq ....    20
 Integral Threshold     Thresh          ....  2.500e-11 Eh
 Primitive CutOff       TCut            ....  2.500e-12 Eh

Convergence Tolerance:
 Convergence Check Mode ConvCheckMode   .... Total+1el-Energy
 Convergence forced     ConvForced      .... 0
 Energy Change          TolE            ....  1.000e-08 Eh
 1-El. energy change                    ....  1.000e-05 Eh
 Orbital Gradient       TolG            ....  1.000e-05
 Orbital Rotation angle TolX            ....  1.000e-05
 DIIS Error             TolErr          ....  5.000e-07


Diagonalization of the overlap matrix:
Smallest eigenvalue                        ... 9.328e-04
Time for diagonalization                   ...    0.080 sec
Threshold for overlap eigenvalues          ... 1.000e-08
Number of eigenvalues below threshold      ... 0
Time for construction of square roots      ...    0.002 sec
Total time needed                          ...    0.083 sec

-------------------
DFT GRID GENERATION
-------------------

General Integration Accuracy     IntAcc      ...  4.340
Radial Grid Type                 RadialGrid  ... Gauss-Chebyshev
Angular Grid (max. acc.)         AngularGrid ... Lebedev-110
Angular grid pruning method      GridPruning ... 3 (G Style)
Weight generation scheme         WeightScheme... Becke
Basis function cutoff            BFCut       ...    1.0000e-11
Integration weight cutoff        WCut        ...    1.0000e-14
Grids for H and He will be reduced by one unit

# of grid points (after initial pruning)     ...  24150 (   0.0 sec)
# of grid points (after weights+screening)   ...  22458 (   0.1 sec)
nearest neighbour list constructed           ...    0.0 sec
Grid point re-assignment to atoms done       ...    0.0 sec
Grid point division into batches done        ...    0.0 sec
Reduced shell lists constructed in    0.1 sec

Total number of grid points                  ...    22458
Total number of batches                      ...      359
Average number of points per batch           ...       62
Average number of grid points per atom       ...     1248
Average number of shells per batch           ...    54.85 (61.63%)
Average number of basis functions per batch  ...   116.78 (60.51%)
Average number of large shells per batch     ...    40.56 (73.96%)
Average number of large basis fcns per batch ...    86.26 (73.87%)
Maximum spatial batch extension              ...  18.12, 20.21, 22.37 au
Average spatial batch extension              ...   3.47,  3.72,  4.10 au

Time for grid setup =    0.207 sec

------------------------------
INITIAL GUESS: MODEL POTENTIAL
------------------------------
Loading Hartree-Fock densities                     ... done
Calculating cut-offs                               ... done
Setting up the integral package                    ... done
Initializing the effective Hamiltonian             ... done
Starting the Coulomb interaction                   ... done (   0.1 sec)
Reading the grid                                   ... done
Mapping shells                                     ... done
Starting the XC term evaluation                    ... done (   0.2 sec)
  promolecular density results
     # of electrons  =     89.991733433
     EX              =    -88.700894880
     EC              =     -3.126457234
     EX+EC           =    -91.827352114
Transforming the Hamiltonian                       ... done (   0.0 sec)
Diagonalizing the Hamiltonian                      ... done (   0.0 sec)
Back transforming the eigenvectors                 ... done (   0.0 sec)
Now organizing SCF variables                       ... done
                      ------------------
                      INITIAL GUESS DONE (   0.6 sec)
                      ------------------
--------------
SCF ITERATIONS
--------------
ITER       Energy         Delta-E        Max-DP      RMS-DP      [F,P]     Damp
               ***  Starting incremental Fock matrix formation  ***
  0   -910.5276635791   0.000000000000 0.07661675  0.00217722  0.2501279 0.7000
  1   -910.6490500418  -0.121386462650 0.05011733  0.00152038  0.1235660 0.7000
                               ***Turning on DIIS***
  2   -910.7034750941  -0.054425052360 0.08871988  0.00266326  0.0479336 0.0000
  3   -910.7895185158  -0.086043421622 0.04418320  0.00113540  0.0649498 0.0000
  4   -910.8065458212  -0.017027305396 0.00960052  0.00027232  0.0068781 0.0000
  5   -910.8070395890  -0.000493767844 0.00320989  0.00011528  0.0045023 0.0000
                      *** Initiating the SOSCF procedure ***
                           *** Shutting down DIIS ***
                      *** Re-Reading the Fockian *** 
                      *** Removing any level shift *** 
ITER      Energy       Delta-E        Grad      Rot      Max-DP    RMS-DP
  6   -910.80714869  -0.0001090963  0.001175  0.001175  0.002445  0.000065
               *** Restarting incremental Fock matrix formation ***
  7   -910.80718150  -0.0000328149  0.000705  0.001714  0.002295  0.000046
  8   -910.80719253  -0.0000110257  0.000367  0.001757  0.002263  0.000047
  9   -910.80719699  -0.0000044659  0.000150  0.000369  0.000491  0.000014
 10   -910.80719778  -0.0000007838  0.000021  0.000041  0.000085  0.000002
 11   -910.80719779  -0.0000000189  0.000017  0.000033  0.000039  0.000001
 12   -910.80719780  -0.0000000104  0.000004  0.000017  0.000020  0.000000
                  ***Gradient check signals convergence***
              ***Rediagonalizing the Fockian in SOSCF/NRSCF***

               *****************************************************
               *                     SUCCESS                       *
               *           SCF CONVERGED AFTER  13 CYCLES          *
               *****************************************************

Setting up the final grid:

General Integration Accuracy     IntAcc      ...  4.670
Radial Grid Type                 RadialGrid  ... Gauss-Chebyshev
Angular Grid (max. acc.)         AngularGrid ... Lebedev-302
Angular grid pruning method      GridPruning ... 3 (G Style)
Weight generation scheme         WeightScheme... Becke
Basis function cutoff            BFCut       ...    1.0000e-11
Integration weight cutoff        WCut        ...    1.0000e-14
Grids for H and He will be reduced by one unit

# of grid points (after initial pruning)     ...  92724 (   0.0 sec)
# of grid points (after weights+screening)   ...  84946 (   0.2 sec)
nearest neighbour list constructed           ...    0.0 sec
Grid point re-assignment to atoms done       ...    0.0 sec
Grid point division into batches done        ...    0.3 sec
Reduced shell lists constructed in    0.8 sec

Total number of grid points                  ...    84946
Total number of batches                      ...     1336
Average number of points per batch           ...       63
Average number of grid points per atom       ...     4719
Average number of shells per batch           ...    49.85 (56.02%)
Average number of basis functions per batch  ...   105.51 (54.67%)
Average number of large shells per batch     ...    36.30 (72.81%)
Average number of large basis fcns per batch ...    76.38 (72.39%)
Maximum spatial batch extension              ...  18.59, 18.97, 21.12 au
Average spatial batch extension              ...   2.36,  2.44,  2.61 au

Final grid set up in    1.0 sec
Final integration                            ... done (   0.9 sec)
Change in XC energy                          ...     0.002130950
Integrated number of electrons               ...    89.999932303
Previous integrated no of electrons          ...    89.999632886

----------------
TOTAL SCF ENERGY
----------------

Total Energy       :         -910.80506685 Eh          -24784.26588 eV

Components:
Nuclear Repulsion  :          706.03648219 Eh           19212.22941 eV
Electronic Energy  :        -1616.84154905 Eh          -43996.49529 eV
One Electron Energy:        -2650.75708668 Eh          -72130.76739 eV
Two Electron Energy:         1033.91553764 Eh           28134.27210 eV

Virial components:
Potential Energy   :        -1816.33967578 Eh          -49425.11530 eV
Kinetic Energy     :          905.53460892 Eh           24640.84943 eV
Virial Ratio       :            2.00582027


DFT components:
N(Alpha)           :       44.999966151568 electrons
N(Beta)            :       44.999966151568 electrons
N(Total)           :       89.999932303136 electrons
E(XC)              :      -66.119381338874 Eh       
DFET-embed. en.    :        0.000000000000 Eh       

---------------
SCF CONVERGENCE
---------------

  Last Energy change         ...    9.0074e-10  Tolerance :   1.0000e-08
  Last MAX-Density change    ...    6.9331e-06  Tolerance :   1.0000e-07
  Last RMS-Density change    ...    1.5078e-07  Tolerance :   5.0000e-09
  Last Orbital Gradient      ...    2.4401e-06  Tolerance :   1.0000e-05
  Last Orbital Rotation      ...    6.4142e-06  Tolerance :   1.0000e-05

             **** THE GBW FILE WAS UPDATED (057465459.gbw) ****
             **** DENSITY FILE WAS UPDATED (057465459.scfp) ****
             **** ENERGY FILE WAS UPDATED (057465459.en.tmp) ****
             **** THE GBW FILE WAS UPDATED (057465459.gbw) ****
             **** DENSITY FILE WAS UPDATED (057465459.scfp) ****
----------------
ORBITAL ENERGIES
----------------

  NO   OCC          E(Eh)            E(eV) 
   0   2.0000     -88.986272     -2421.4396 
   1   2.0000     -19.288301      -524.8613 
   2   2.0000     -19.255650      -523.9729 
   3   2.0000     -19.230858      -523.2983 
   4   2.0000     -14.438733      -392.8979 
   5   2.0000     -10.427549      -283.7480 
   6   2.0000     -10.355528      -281.7882 
   7   2.0000     -10.353010      -281.7197 
   8   2.0000     -10.344974      -281.5011 
   9   2.0000     -10.338688      -281.3300 
  10   2.0000     -10.331331      -281.1298 
  11   2.0000      -8.102286      -220.4744 
  12   2.0000      -6.060362      -164.9108 
  13   2.0000      -6.056409      -164.8033 
  14   2.0000      -6.053465      -164.7232 
  15   2.0000      -1.219308       -33.1791 
  16   2.0000      -1.160269       -31.5725 
  17   2.0000      -1.121428       -30.5156 
  18   2.0000      -1.097654       -29.8687 
  19   2.0000      -0.942109       -25.6361 
  20   2.0000      -0.895483       -24.3673 
  21   2.0000      -0.843798       -22.9609 
  22   2.0000      -0.779964       -21.2239 
  23   2.0000      -0.755122       -20.5479 
  24   2.0000      -0.701700       -19.0942 
  25   2.0000      -0.670539       -18.2463 
  26   2.0000      -0.630627       -17.1602 
  27   2.0000      -0.601545       -16.3689 
  28   2.0000      -0.597818       -16.2675 
  29   2.0000      -0.585391       -15.9293 
  30   2.0000      -0.572331       -15.5739 
  31   2.0000      -0.569587       -15.4992 
  32   2.0000      -0.541964       -14.7476 
  33   2.0000      -0.527671       -14.3587 
  34   2.0000      -0.504405       -13.7256 
  35   2.0000      -0.501970       -13.6593 
  36   2.0000      -0.490555       -13.3487 
  37   2.0000      -0.477030       -12.9806 
  38   2.0000      -0.434637       -11.8271 
  39   2.0000      -0.421182       -11.4609 
  40   2.0000      -0.384568       -10.4646 
  41   2.0000      -0.383161       -10.4263 
  42   2.0000      -0.371885       -10.1195 
  43   2.0000      -0.369397       -10.0518 
  44   2.0000      -0.339091        -9.2271 
  45   0.0000       0.026593         0.7236 
  46   0.0000       0.073002         1.9865 
  47   0.0000       0.110392         3.0039 
  48   0.0000       0.138671         3.7734 
  49   0.0000       0.153444         4.1754 
  50   0.0000       0.177642         4.8339 
  51   0.0000       0.183107         4.9826 
  52   0.0000       0.195068         5.3081 
  53   0.0000       0.206856         5.6288 
  54   0.0000       0.219537         5.9739 
  55   0.0000       0.224687         6.1140 
  56   0.0000       0.249190         6.7808 
  57   0.0000       0.257149         6.9974 
  58   0.0000       0.282429         7.6853 
  59   0.0000       0.308334         8.3902 
  60   0.0000       0.316136         8.6025 
  61   0.0000       0.349536         9.5114 
  62   0.0000       0.386180        10.5085 
  63   0.0000       0.397155        10.8071 
  64   0.0000       0.413158        11.2426 
  65   0.0000       0.451125        12.2757 
  66   0.0000       0.495103        13.4724 
  67   0.0000       0.542294        14.7566 
  68   0.0000       0.543174        14.7805 
  69   0.0000       0.549134        14.9427 
  70   0.0000       0.558586        15.1999 
  71   0.0000       0.564685        15.3659 
  72   0.0000       0.570605        15.5269 
  73   0.0000       0.576421        15.6852 
  74   0.0000       0.585649        15.9363 
  75   0.0000       0.602603        16.3977 
  76   0.0000       0.625430        17.0188 
  77   0.0000       0.637578        17.3494 
  78   0.0000       0.643176        17.5017 
  79   0.0000       0.668036        18.1782 
  80   0.0000       0.706325        19.2201 
  81   0.0000       0.709683        19.3114 
  82   0.0000       0.715510        19.4700 
  83   0.0000       0.721166        19.6239 
  84   0.0000       0.728800        19.8317 
  85   0.0000       0.741148        20.1677 
  86   0.0000       0.746396        20.3105 
  87   0.0000       0.755888        20.5688 
  88   0.0000       0.758013        20.6266 
  89   0.0000       0.768838        20.9211 
  90   0.0000       0.781454        21.2645 
  91   0.0000       0.794105        21.6087 
  92   0.0000       0.796298        21.6684 
  93   0.0000       0.813135        22.1265 
  94   0.0000       0.818467        22.2716 
  95   0.0000       0.830996        22.6126 
  96   0.0000       0.838652        22.8209 
  97   0.0000       0.879542        23.9336 
  98   0.0000       0.901090        24.5199 
  99   0.0000       0.944096        25.6901 
 100   0.0000       0.975465        26.5438 
 101   0.0000       0.991330        26.9755 
 102   0.0000       0.991962        26.9927 
 103   0.0000       1.024612        27.8811 
 104   0.0000       1.052414        28.6376 
 105   0.0000       1.075069        29.2541 
 106   0.0000       1.102929        30.0122 
 107   0.0000       1.138042        30.9677 
 108   0.0000       1.157501        31.4972 
 109   0.0000       1.183679        32.2095 
 110   0.0000       1.199087        32.6288 
 111   0.0000       1.224249        33.3135 
 112   0.0000       1.235576        33.6217 
 113   0.0000       1.250507        34.0280 
 114   0.0000       1.287663        35.0391 
 115   0.0000       1.311691        35.6929 
 116   0.0000       1.387134        37.7458 
 117   0.0000       1.393415        37.9168 
 118   0.0000       1.402059        38.1520 
 119   0.0000       1.416653        38.5491 
 120   0.0000       1.421535        38.6819 
 121   0.0000       1.444223        39.2993 
 122   0.0000       1.446877        39.3715 
 123   0.0000       1.498897        40.7871 
 124   0.0000       1.554853        42.3097 
 125   0.0000       1.557858        42.3915 
 126   0.0000       1.611819        43.8598 
 127   0.0000       1.644488        44.7488 
 128   0.0000       1.680328        45.7241 
 129   0.0000       1.689434        45.9718 
 130   0.0000       1.723539        46.8999 
 131   0.0000       1.729689        47.0672 
 132   0.0000       1.744640        47.4741 
 133   0.0000       1.782013        48.4910 
 134   0.0000       1.801405        49.0187 
 135   0.0000       1.810580        49.2684 
 136   0.0000       1.822196        49.5845 
 137   0.0000       1.861064        50.6421 
 138   0.0000       1.872321        50.9484 
 139   0.0000       1.925559        52.3971 
 140   0.0000       1.935972        52.6805 
 141   0.0000       1.950841        53.0851 
 142   0.0000       1.959203        53.3126 
 143   0.0000       1.961959        53.3876 
 144   0.0000       2.005925        54.5840 
 145   0.0000       2.006583        54.6019 
 146   0.0000       2.021802        55.0160 
 147   0.0000       2.048208        55.7346 
 148   0.0000       2.053631        55.8821 
 149   0.0000       2.095004        57.0080 
 150   0.0000       2.166469        58.9526 
 151   0.0000       2.170234        59.0551 
 152   0.0000       2.225564        60.5607 
 153   0.0000       2.244323        61.0711 
 154   0.0000       2.254533        61.3490 
 155   0.0000       2.271743        61.8173 
 156   0.0000       2.305082        62.7245 
 157   0.0000       2.395427        65.1829 
 158   0.0000       2.420170        65.8562 
 159   0.0000       2.431205        66.1565 
 160   0.0000       2.451351        66.7047 
 161   0.0000       2.493108        67.8409 
 162   0.0000       2.514685        68.4281 
 163   0.0000       2.521672        68.6182 
 164   0.0000       2.549610        69.3784 
 165   0.0000       2.609343        71.0038 
 166   0.0000       2.700758        73.4914 
 167   0.0000       2.743297        74.6489 
 168   0.0000       2.764666        75.2304 
 169   0.0000       2.786531        75.8254 
 170   0.0000       2.834470        77.1298 
 171   0.0000       2.836960        77.1976 
 172   0.0000       2.861642        77.8692 
 173   0.0000       2.904121        79.0252 
 174   0.0000       2.938516        79.9611 
 175   0.0000       2.958109        80.4942 
 176   0.0000       2.978299        81.0436 
 177   0.0000       2.986302        81.2614 
 178   0.0000       3.028821        82.4184 
 179   0.0000       3.046636        82.9032 
 180   0.0000       3.053908        83.1011 
 181   0.0000       3.179781        86.5263 
 182   0.0000       3.215665        87.5027 
 183   0.0000       3.217222        87.5451 
 184   0.0000       3.295825        89.6840 
 185   0.0000       3.305070        89.9355 
 186   0.0000       3.395227        92.3888 
 187   0.0000       3.408769        92.7573 
 188   0.0000       3.451937        93.9320 
 189   0.0000       3.602245        98.0221 
 190   0.0000       3.667255        99.7911 
 191   0.0000       3.770611       102.6035 
 192   0.0000       3.903017       106.2065 

                    ********************************
                    * MULLIKEN POPULATION ANALYSIS *
                    ********************************

-----------------------
MULLIKEN ATOMIC CHARGES
-----------------------
   0 C :    0.155423
   1 H :    0.022018
   2 O :   -0.426550
   3 C :    0.292165
   4 C :   -0.261403
   5 C :   -0.017641
   6 N :   -0.094855
   7 C :   -0.005410
   8 S :    0.142756
   9 H :    0.065371
  10 C :    0.174662
  11 O :   -0.243431
  12 O :   -0.165861
  13 H :    0.197651
  14 H :    0.046615
  15 H :    0.047252
  16 H :    0.049609
  17 H :    0.021629
Sum of atomic charges:   -0.0000000

--------------------------------
MULLIKEN REDUCED ORBITAL CHARGES
--------------------------------
  0 C s       :     3.012399  s :     3.012399
      pz      :     1.023714  p :     2.776867
      px      :     0.880383
      py      :     0.872770
      dz2     :     0.008544  d :     0.055311
      dxz     :     0.004876
      dyz     :     0.015403
      dx2y2   :     0.009943
      dxy     :     0.016546
  1 H s       :     0.955416  s :     0.955416
      pz      :     0.011943  p :     0.022565
      px      :     0.003437
      py      :     0.007186
  2 O s       :     3.768541  s :     3.768541
      pz      :     1.882879  p :     4.641601
      px      :     1.202473
      py      :     1.556249
      dz2     :     0.002381  d :     0.016408
      dxz     :     0.001988
      dyz     :     0.001847
      dx2y2   :     0.003529
      dxy     :     0.006663
  3 C s       :     2.906303  s :     2.906303
      pz      :     1.045770  p :     2.737776
      px      :     0.734807
      py      :     0.957199
      dz2     :     0.008995  d :     0.063756
      dxz     :     0.012385
      dyz     :     0.011536
      dx2y2   :     0.012984
      dxy     :     0.017856
  4 C s       :     3.146894  s :     3.146894
      pz      :     1.026372  p :     3.070990
      px      :     1.044508
      py      :     1.000109
      dz2     :     0.003465  d :     0.043519
      dxz     :     0.008390
      dyz     :     0.007605
      dx2y2   :     0.012765
      dxy     :     0.011293
  5 C s       :     3.080694  s :     3.080694
      pz      :     1.095435  p :     2.879740
      px      :     0.940688
      py      :     0.843617
      dz2     :     0.004337  d :     0.057207
      dxz     :     0.006892
      dyz     :     0.007648
      dx2y2   :     0.019478
      dxy     :     0.018852
  6 N s       :     3.488418  s :     3.488418
      pz      :     1.113961  p :     3.573560
      px      :     1.469675
      py      :     0.989923
      dz2     :     0.003341  d :     0.032878
      dxz     :     0.005804
      dyz     :     0.005781
      dx2y2   :     0.005792
      dxy     :     0.012160
  7 C s       :     3.142908  s :     3.142908
      pz      :     1.020856  p :     2.803003
      px      :     0.833323
      py      :     0.948825
      dz2     :     0.003747  d :     0.059500
      dxz     :     0.008867
      dyz     :     0.006373
      dx2y2   :     0.026742
      dxy     :     0.013771
  8 S s       :     5.847539  s :     5.847539
      pz      :     3.623119  p :     9.900511
      px      :     3.267526
      py      :     3.009867
      dz2     :     0.012444  d :     0.109193
      dxz     :     0.011876
      dyz     :     0.018742
      dx2y2   :     0.038297
      dxy     :     0.027835
  9 H s       :     0.912010  s :     0.912010
      pz      :     0.004565  p :     0.022619
      px      :     0.002932
      py      :     0.015122
 10 C s       :     3.032297  s :     3.032297
      pz      :     0.796870  p :     2.652106
      px      :     0.857407
      py      :     0.997829
      dz2     :     0.007562  d :     0.140935
      dxz     :     0.021347
      dyz     :     0.020884
      dx2y2   :     0.050402
      dxy     :     0.040740
 11 O s       :     3.717167  s :     3.717167
      pz      :     1.428616  p :     4.507807
      px      :     1.677009
      py      :     1.402182
      dz2     :     0.002064  d :     0.018457
      dxz     :     0.001033
      dyz     :     0.004952
      dx2y2   :     0.004999
      dxy     :     0.005410
 12 O s       :     3.660015  s :     3.660015
      pz      :     1.774285  p :     4.491774
      px      :     1.267411
      py      :     1.450077
      dz2     :     0.002028  d :     0.014073
      dxz     :     0.002069
      dyz     :     0.000909
      dx2y2   :     0.005404
      dxy     :     0.003663
 13 H s       :     0.735297  s :     0.735297
      pz      :     0.016147  p :     0.067052
      px      :     0.019180
      py      :     0.031725
 14 H s       :     0.931547  s :     0.931547
      pz      :     0.011594  p :     0.021838
      px      :     0.002555
      py      :     0.007689
 15 H s       :     0.930819  s :     0.930819
      pz      :     0.011077  p :     0.021929
      px      :     0.002703
      py      :     0.008149
 16 H s       :     0.928464  s :     0.928464
      pz      :     0.005166  p :     0.021927
      px      :     0.010977
      py      :     0.005785
 17 H s       :     0.955662  s :     0.955662
      pz      :     0.011407  p :     0.022709
      px      :     0.003446
      py      :     0.007856


                     *******************************
                     * LOEWDIN POPULATION ANALYSIS *
                     *******************************

----------------------
LOEWDIN ATOMIC CHARGES
----------------------
   0 C :    0.069237
   1 H :    0.010439
   2 O :   -0.188609
   3 C :    0.063832
   4 C :   -0.157871
   5 C :   -0.115455
   6 N :   -0.079351
   7 C :   -0.129710
   8 S :    0.449051
   9 H :    0.021103
  10 C :    0.082363
  11 O :   -0.204332
  12 O :   -0.020639
  13 H :    0.102899
  14 H :    0.029851
  15 H :    0.029804
  16 H :    0.027075
  17 H :    0.010312

-------------------------------
LOEWDIN REDUCED ORBITAL CHARGES
-------------------------------
  0 C s       :     2.840290  s :     2.840290
      pz      :     1.074746  p :     2.962458
      px      :     0.935223
      py      :     0.952490
      dz2     :     0.020038  d :     0.128015
      dxz     :     0.008904
      dyz     :     0.039679
      dx2y2   :     0.021698
      dxy     :     0.037696
  1 H s       :     0.924964  s :     0.924964
      pz      :     0.033670  p :     0.064596
      px      :     0.010257
      py      :     0.020670
  2 O s       :     3.454877  s :     3.454877
      pz      :     1.866676  p :     4.704130
      px      :     1.245583
      py      :     1.591871
      dz2     :     0.003938  d :     0.029602
      dxz     :     0.003699
      dyz     :     0.002267
      dx2y2   :     0.007069
      dxy     :     0.012629
  3 C s       :     2.830429  s :     2.830429
      pz      :     1.085362  p :     2.955749
      px      :     0.843998
      py      :     1.026388
      dz2     :     0.021353  d :     0.149990
      dxz     :     0.024964
      dyz     :     0.031213
      dx2y2   :     0.028410
      dxy     :     0.044049
  4 C s       :     2.921831  s :     2.921831
      pz      :     1.008472  p :     3.133622
      px      :     1.095209
      py      :     1.029941
      dz2     :     0.007411  d :     0.102417
      dxz     :     0.016603
      dyz     :     0.013270
      dx2y2   :     0.033957
      dxy     :     0.031175
  5 C s       :     2.854018  s :     2.854018
      pz      :     1.072770  p :     3.117759
      px      :     1.050413
      py      :     0.994577
      dz2     :     0.010480  d :     0.143678
      dxz     :     0.014420
      dyz     :     0.013755
      dx2y2   :     0.053251
      dxy     :     0.051772
  6 N s       :     3.210072  s :     3.210072
      pz      :     1.114278  p :     3.801392
      px      :     1.549655
      py      :     1.137458
      dz2     :     0.006805  d :     0.067888
      dxz     :     0.006525
      dyz     :     0.012605
      dx2y2   :     0.013247
      dxy     :     0.028706
  7 C s       :     2.922173  s :     2.922173
      pz      :     1.020097  p :     3.073221
      px      :     0.996614
      py      :     1.056509
      dz2     :     0.008286  d :     0.134317
      dxz     :     0.017048
      dyz     :     0.010029
      dx2y2   :     0.062956
      dxy     :     0.035998
  8 S s       :     5.503417  s :     5.503417
      pz      :     3.574465  p :     9.910052
      px      :     3.290727
      py      :     3.044861
      dz2     :     0.016082  d :     0.137480
      dxz     :     0.011730
      dyz     :     0.022611
      dx2y2   :     0.051473
      dxy     :     0.035583
  9 H s       :     0.904760  s :     0.904760
      pz      :     0.016026  p :     0.074136
      px      :     0.013097
      py      :     0.045013
 10 C s       :     2.837580  s :     2.837580
      pz      :     0.794887  p :     2.774569
      px      :     0.922255
      py      :     1.057427
      dz2     :     0.017021  d :     0.305488
      dxz     :     0.040140
      dyz     :     0.038403
      dx2y2   :     0.113750
      dxy     :     0.096173
 11 O s       :     3.540673  s :     3.540673
      pz      :     1.422938  p :     4.632560
      px      :     1.702113
      py      :     1.507510
      dz2     :     0.004413  d :     0.031098
      dxz     :     0.001261
      dyz     :     0.005837
      dx2y2   :     0.009281
      dxy     :     0.010307
 12 O s       :     3.410351  s :     3.410351
      pz      :     1.728307  p :     4.582668
      px      :     1.328416
      py      :     1.525945
      dz2     :     0.004541  d :     0.027619
      dxz     :     0.003131
      dyz     :     0.000464
      dx2y2   :     0.011459
      dxy     :     0.008024
 13 H s       :     0.723216  s :     0.723216
      pz      :     0.044574  p :     0.173885
      px      :     0.043297
      py      :     0.086013
 14 H s       :     0.904197  s :     0.904197
      pz      :     0.033532  p :     0.065952
      px      :     0.010155
      py      :     0.022265
 15 H s       :     0.903989  s :     0.903989
      pz      :     0.031824  p :     0.066207
      px      :     0.010679
      py      :     0.023704
 16 H s       :     0.909086  s :     0.909086
      pz      :     0.012758  p :     0.063840
      px      :     0.033915
      py      :     0.017167
 17 H s       :     0.925032  s :     0.925032
      pz      :     0.031683  p :     0.064655
      px      :     0.010289
      py      :     0.022683


                      *****************************
                      * MAYER POPULATION ANALYSIS *
                      *****************************

  NA   - Mulliken gross atomic population
  ZA   - Total nuclear charge
  QA   - Mulliken gross atomic charge
  VA   - Mayer's total valence
  BVA  - Mayer's bonded valence
  FA   - Mayer's free valence

  ATOM       NA         ZA         QA         VA         BVA        FA
  0 C      5.8446     6.0000     0.1554     3.9322     3.9322     0.0000
  1 H      0.9780     1.0000     0.0220     0.9888     0.9888    -0.0000
  2 O      8.4266     8.0000    -0.4266     2.0444     2.0444     0.0000
  3 C      5.7078     6.0000     0.2922     3.9889     3.9889     0.0000
  4 C      6.2614     6.0000    -0.2614     3.9717     3.9717     0.0000
  5 C      6.0176     6.0000    -0.0176     3.8845     3.8845     0.0000
  6 N      7.0949     7.0000    -0.0949     3.1917     3.1917    -0.0000
  7 C      6.0054     6.0000    -0.0054     3.9477     3.9477     0.0000
  8 S     15.8572    16.0000     0.1428     2.5386     2.5386     0.0000
  9 H      0.9346     1.0000     0.0654     0.9939     0.9939     0.0000
 10 C      5.8253     6.0000     0.1747     4.4061     4.4061    -0.0000
 11 O      8.2434     8.0000    -0.2434     2.2586     2.2586    -0.0000
 12 O      8.1659     8.0000    -0.1659     2.2885     2.2885    -0.0000
 13 H      0.8023     1.0000     0.1977     1.0184     1.0184    -0.0000
 14 H      0.9534     1.0000     0.0466     0.9976     0.9976    -0.0000
 15 H      0.9527     1.0000     0.0473     0.9996     0.9996     0.0000
 16 H      0.9504     1.0000     0.0496     0.9917     0.9917    -0.0000
 17 H      0.9784     1.0000     0.0216     0.9891     0.9891    -0.0000

  Mayer bond orders larger than 0.100000
B(  0-C ,  1-H ) :   0.9715 B(  0-C ,  2-O ) :   0.9696 B(  0-C , 16-H ) :   0.9839 
B(  0-C , 17-H ) :   0.9715 B(  2-O ,  3-C ) :   1.0155 B(  3-C ,  4-C ) :   1.0450 
B(  3-C , 14-H ) :   0.9261 B(  3-C , 15-H ) :   0.9261 B(  4-C ,  5-C ) :   1.5635 
B(  4-C ,  8-S ) :   1.2103 B(  5-C ,  6-N ) :   1.3371 B(  5-C , 10-C ) :   0.9478 
B(  6-N ,  7-C ) :   1.7463 B(  7-C ,  8-S ) :   1.1264 B(  7-C ,  9-H ) :   0.9658 
B( 10-C , 11-O ) :   2.0856 B( 10-C , 12-O ) :   1.3251 B( 12-O , 13-H ) :   0.9406 


-------
TIMINGS
-------

Total SCF time: 0 days 0 hours 1 min 34 sec 

Total time                  ....      94.397 sec
Sum of individual times     ....      94.142 sec  ( 99.7%)

Fock matrix formation       ....      92.484 sec  ( 98.0%)
  XC integration            ....       4.350 sec  (  4.7% of F)
    Basis function eval.    ....       1.366 sec  ( 31.4% of XC)
    Density eval.           ....       0.736 sec  ( 16.9% of XC)
    XC-Functional eval.     ....       1.142 sec  ( 26.2% of XC)
    XC-Potential eval.      ....       0.981 sec  ( 22.6% of XC)
Diagonalization             ....       0.026 sec  (  0.0%)
Density matrix formation    ....       0.007 sec  (  0.0%)
Population analysis         ....       0.004 sec  (  0.0%)
Initial guess               ....       0.403 sec  (  0.4%)
Orbital Transformation      ....       0.000 sec  (  0.0%)
Orbital Orthonormalization  ....       0.000 sec  (  0.0%)
DIIS solution               ....       0.009 sec  (  0.0%)
SOSCF solution              ....       0.017 sec  (  0.0%)
Grid generation             ....       1.191 sec  (  1.3%)


-------------------------------------------------------------------------------
                          DFT DISPERSION CORRECTION                            
                                                                               
                              DFTD3 V3.1  Rev 1                                
                              USING zero damping                               
-------------------------------------------------------------------------------
The omegaB97X-D3 functional is recognized. Fit by Chai et al.
Active option DFTDOPT                   ...         3   

molecular C6(AA) [au] = 4316.495992 


            DFT-D V3
 parameters
 s6 scaling factor         :     1.0000 
 rs6 scaling factor        :     1.2810 
 s8 scaling factor         :     1.0000 
 rs8 scaling factor        :     1.0940 
 Damping factor alpha6     :    14.0000 
 Damping factor alpha8     :    16.0000 
 ad hoc parameters k1-k3   :    16.0000     1.3333    -4.0000 

 Edisp/kcal,au: -3.508934193415  -0.005591841979 
 E6   /kcal   :  -1.431589999 
 E8   /kcal   :  -2.077344195 
 % E8         :  59.201571770 

-------------------------   ----------------
Dispersion correction           -0.005591842
-------------------------   ----------------


-------------------------   --------------------
FINAL SINGLE POINT ENERGY      -910.810658695860
-------------------------   --------------------

------------------------------------------------------------------------------
                         ORCA SCF GRADIENT CALCULATION
------------------------------------------------------------------------------

Gradient of the Kohn-Sham DFT energy:
Kohn-Sham wavefunction type      ... RKS
Hartree-Fock exchange scaling    ...    0.196
Number of operators              ...    1
Number of atoms                  ...   18
Basis set dimensions             ...  193
Integral neglect threshold       ... 2.5e-11
Integral primitive cutoff        ... 2.5e-12

Nuclear repulsion gradient       ... done
One Electron Gradient            ... done
Pre-screening matrix             ... done
Starting the two electron gradient:
Two electron gradient done
Exchange-correlation gradient    ... done
Dispersion correction            ... done

------------------
CARTESIAN GRADIENT
------------------

   1   C   :   -0.008925596   -0.009526535   -0.000082351
   2   H   :    0.000914825    0.004017174    0.004936285
   3   O   :   -0.003666457    0.003721575    0.000170559
   4   C   :    0.012936037    0.000086020   -0.000296037
   5   C   :   -0.004420995    0.002158885   -0.000161591
   6   C   :    0.012948456   -0.005283720    0.000083945
   7   N   :   -0.018642564    0.001974195   -0.000084320
   8   C   :    0.017958120    0.002528660    0.000108136
   9   S   :   -0.008187138    0.000243772   -0.000009695
  10   H   :   -0.002889372   -0.015881127   -0.000068175
  11   C   :   -0.007835029    0.013515715   -0.000054355
  12   O   :    0.001502015   -0.001302789    0.000051106
  13   O   :   -0.003826861   -0.003598088   -0.000025847
  14   H   :    0.007060658   -0.000745699    0.000074981
  15   H   :   -0.001321693    0.002361171    0.001941488
  16   H   :   -0.001429992    0.002333763   -0.001704266
  17   H   :    0.007073098   -0.000852563   -0.000198900
  18   H   :    0.000752489    0.004249591   -0.004680964

Difference to translation invariance:
           :    0.0000000000    0.0000000000    0.0000000000

Norm of the cartesian gradient     ...    0.0455323532
RMS gradient                       ...    0.0061961685
MAX gradient                       ...    0.0186425643

-------
TIMINGS
-------

Total SCF gradient time            ...       34.088 sec

One electron gradient       ....       0.130 sec  (  0.4%)
Prescreening matrices       ....       0.098 sec  (  0.3%)
Two electron gradient       ....      30.555 sec  ( 89.6%)
XC gradient                 ....       3.166 sec  (  9.3%)
------------------------------------------------------------------------------
                         ORCA GEOMETRY RELAXATION STEP
------------------------------------------------------------------------------

Reading the OPT-File                    .... done
Getting information on internals        .... done
Copying old internal coords+grads       .... done
Making the new internal coordinates     .... (new redundants).... done
Validating the new internal coordinates .... (new redundants).... done
Calculating the B-matrix                .... done
Calculating the G,G- and P matrices     .... done
Transforming gradient to internals      .... done
Projecting the internal gradient        .... done
Number of atoms                         ....  18
Number of internal coordinates          ....  76
Current Energy                          ....  -910.810658696 Eh
Current gradient norm                   ....     0.045532353 Eh/bohr
Maximum allowed component of the step   ....  0.300
Current trust radius                    ....  0.300
Evaluating the initial hessian          ....  (Almloef) done
Projecting the Hessian                  .... done
Forming the augmented Hessian           .... done
Diagonalizing the augmented Hessian     .... done
Last element of RFO vector              ....  0.996699099
Lowest eigenvalues of augmented Hessian:
 -0.002855082  0.014587716  0.015266292  0.016714496  0.018373151
Length of the computed step             ....  0.081453262
The final length of the internal step   ....  0.081453262
Converting the step to cartesian space:
 Initial RMS(Int)=    0.0093433299
Transforming coordinates:
 Iter   0:  RMS(Cart)=    0.0206784544 RMS(Int)=    1.4412200056
 Iter   1:  RMS(Cart)=    0.0002004328 RMS(Int)=    0.0001589424
 Iter   2:  RMS(Cart)=    0.0000062161 RMS(Int)=    0.0000031607
 Iter   3:  RMS(Cart)=    0.0000002216 RMS(Int)=    0.0000002008
 Iter   4:  RMS(Cart)=    0.0000000083 RMS(Int)=    0.0000000042
done
Storing new coordinates                 .... done

                                .--------------------.
          ----------------------|Geometry convergence|-------------------------
          Item                value                   Tolerance       Converged
          ---------------------------------------------------------------------
          RMS gradient        0.0041886965            0.0001000000      NO
          MAX gradient        0.0161052322            0.0003000000      NO
          RMS step            0.0093433299            0.0020000000      NO
          MAX step            0.0414569424            0.0040000000      NO
          ........................................................
          Max(Bonds)      0.0219      Max(Angles)    1.64
          Max(Dihed)        0.37      Max(Improp)    0.00
          ---------------------------------------------------------------------

The optimization has not yet converged - more geometry cycles are needed


    ---------------------------------------------------------------------------
                         Redundant Internal Coordinates
                            (Angstroem and degrees)

        Definition                    Value    dE/dq     Step     New-Value
    ----------------------------------------------------------------------------
     1. B(H   1,C   0)                1.0965 -0.006276  0.0094    1.1059   
     2. B(O   2,C   0)                1.4043  0.001646 -0.0016    1.4027   
     3. B(C   3,O   2)                1.4052  0.004132 -0.0041    1.4011   
     4. B(C   4,C   3)                1.4826 -0.008933  0.0106    1.4931   
     5. B(C   5,C   4)                1.3797  0.001546 -0.0016    1.3781   
     6. B(N   6,C   5)                1.3593 -0.012114  0.0104    1.3697   
     7. B(C   7,N   6)                1.2755 -0.015191  0.0098    1.2853   
     8. B(S   8,C   7)                1.7473  0.004091 -0.0045    1.7428   
     9. B(S   8,C   4)                1.7132 -0.000643  0.0000    1.7133   
    10. B(H   9,C   7)                1.0714 -0.016105  0.0219    1.0933   
    11. B(C  10,C   5)                1.4655 -0.008358  0.0093    1.4748   
    12. B(O  11,C  10)                1.2107  0.000550 -0.0003    1.2105   
    13. B(O  12,C  10)                1.3324  0.002591 -0.0020    1.3304   
    14. B(H  13,O  12)                0.9703  0.003984 -0.0042    0.9661   
    15. B(H  14,C   3)                1.1032 -0.003094  0.0047    1.1079   
    16. B(H  15,C   3)                1.1030 -0.002971  0.0045    1.1075   
    17. B(H  16,C   0)                1.0878 -0.006624  0.0096    1.0974   
    18. B(H  17,C   0)                1.0965 -0.006208  0.0093    1.1058   
    19. A(H   1,C   0,O   2)          111.21 -0.001114    0.21    111.42   
    20. A(O   2,C   0,H  16)          106.42 -0.003309    0.58    107.00   
    21. A(O   2,C   0,H  17)          111.21 -0.001054    0.20    111.41   
    22. A(H   1,C   0,H  17)          108.76  0.001313   -0.24    108.52   
    23. A(H   1,C   0,H  16)          109.61  0.002071   -0.37    109.24   
    24. A(H  16,C   0,H  17)          109.59  0.002123   -0.38    109.21   
    25. A(C   0,O   2,C   3)          113.25 -0.001470    0.21    113.45   
    26. A(O   2,C   3,C   4)          108.45  0.000583   -0.03    108.43   
    27. A(O   2,C   3,H  15)          111.35 -0.000892    0.23    111.58   
    28. A(C   4,C   3,H  15)          109.64  0.000202   -0.06    109.57   
    29. A(C   4,C   3,H  14)          109.58  0.000118   -0.05    109.53   
    30. A(H  14,C   3,H  15)          106.51  0.000772   -0.29    106.22   
    31. A(O   2,C   3,H  14)          111.28 -0.000774    0.20    111.48   
    32. A(C   3,C   4,S   8)          120.91 -0.000883    0.18    121.09   
    33. A(C   3,C   4,C   5)          128.85 -0.002734    0.43    129.29   
    34. A(C   5,C   4,S   8)          110.23  0.003618   -0.61    109.62   
    35. A(N   6,C   5,C  10)          122.10 -0.001358    0.21    122.31   
    36. A(C   4,C   5,C  10)          123.24  0.006153   -0.82    122.42   
    37. A(C   4,C   5,N   6)          114.66 -0.004795    0.62    115.27   
    38. A(C   5,N   6,C   7)          111.67  0.005580   -0.54    111.13   
    39. A(S   8,C   7,H   9)          120.86 -0.000504   -0.00    120.85   
    40. A(N   6,C   7,H   9)          123.83 -0.002599    0.32    124.14   
    41. A(N   6,C   7,S   8)          115.32  0.003103   -0.31    115.00   
    42. A(C   4,S   8,C   7)           88.13 -0.007506    0.84     88.97   
    43. A(C   5,C  10,O  11)          123.75  0.002541   -0.32    123.43   
    44. A(O  11,C  10,O  12)          122.81 -0.001833    0.22    123.03   
    45. A(C   5,C  10,O  12)          113.44 -0.000708    0.10    113.54   
    46. A(C  10,O  12,H  13)          109.98  0.010786   -1.64    108.35   
    47. D(C   3,O   2,C   0,H  17)     60.25  0.000043    0.06     60.31   
    48. D(C   3,O   2,C   0,H   1)    -61.13 -0.000135    0.09    -61.04   
    49. D(C   3,O   2,C   0,H  16)    179.55  0.000003    0.06    179.61   
    50. D(H  15,C   3,O   2,C   0)    -59.68  0.000071    0.04    -59.64   
    51. D(H  14,C   3,O   2,C   0)     58.99 -0.000054   -0.05     58.95   
    52. D(C   4,C   3,O   2,C   0)    179.60 -0.000007   -0.01    179.59   
    53. D(C   5,C   4,C   3,O   2)    178.41 -0.000083    0.17    178.58   
    54. D(S   8,C   4,C   3,H  14)    120.02 -0.000559    0.27    120.29   
    55. D(S   8,C   4,C   3,H  15)   -123.41  0.000558   -0.15   -123.57   
    56. D(S   8,C   4,C   3,O   2)     -1.63 -0.000047    0.07     -1.56   
    57. D(C   5,C   4,C   3,H  15)     56.64  0.000522   -0.06     56.58   
    58. D(C   5,C   4,C   3,H  14)    -59.93 -0.000595    0.37    -59.56   
    59. D(C  10,C   5,C   4,C   3)     -0.13 -0.000020    0.02     -0.11   
    60. D(N   6,C   5,C   4,S   8)     -0.03 -0.000028    0.07      0.03   
    61. D(N   6,C   5,C   4,C   3)    179.92  0.000004   -0.02    179.90   
    62. D(C  10,C   5,C   4,S   8)    179.91 -0.000052    0.11    180.02   
    63. D(C   7,N   6,C   5,C  10)   -179.94  0.000038   -0.08   -180.02   
    64. D(C   7,N   6,C   5,C   4)      0.00  0.000019   -0.04     -0.04   
    65. D(H   9,C   7,N   6,C   5)   -180.00  0.000011   -0.02   -180.02   
    66. D(S   8,C   7,N   6,C   5)      0.03 -0.000003   -0.01      0.02   
    67. D(C   4,S   8,C   7,H   9)    179.98 -0.000021    0.05    180.04   
    68. D(C   4,S   8,C   7,N   6)     -0.04 -0.000009    0.04     -0.00   
    69. D(C   7,S   8,C   4,C   5)      0.04  0.000018   -0.06     -0.02   
    70. D(C   7,S   8,C   4,C   3)   -179.92 -0.000009    0.03   -179.90   
    71. D(O  12,C  10,C   5,N   6)      0.48  0.000006   -0.02      0.46   
    72. D(O  12,C  10,C   5,C   4)   -179.46  0.000033   -0.07   -179.53   
    73. D(O  11,C  10,C   5,N   6)   -179.58 -0.000035    0.07   -179.50   
    74. D(O  11,C  10,C   5,C   4)      0.48 -0.000008    0.03      0.51   
    75. D(H  13,O  12,C  10,O  11)      0.07  0.000027   -0.06      0.02   
    76. D(H  13,O  12,C  10,C   5)   -179.98 -0.000011    0.03   -179.95   
    ----------------------------------------------------------------------------

         *************************************************************
         *                GEOMETRY OPTIMIZATION CYCLE   2            *
         *************************************************************
---------------------------------
CARTESIAN COORDINATES (ANGSTROEM)
---------------------------------
  C     -3.570683   -1.435941    0.005020
  H     -3.520575   -2.050404   -0.913073
  O     -2.571108   -0.451973    0.018105
  C     -1.272182   -0.976181   -0.012653
  C     -0.304170    0.160623   -0.005248
  C      1.073689    0.133502   -0.001027
  N      1.682685    1.360357    0.003423
  C      0.814847    2.308494    0.001964
  S     -0.847632    1.785398   -0.004463
  H      1.067987    3.372075    0.005126
  C      1.839676   -1.126722   -0.001041
  O      1.322837   -2.221225   -0.013711
  O      3.157844   -0.947376    0.013463
  H      3.582799   -1.814986    0.011569
  H     -1.106659   -1.597602   -0.914824
  H     -1.077895   -1.634642    0.856423
  H     -4.535354   -0.913814    0.038471
  H     -3.489005   -2.105883    0.880976

----------------------------
CARTESIAN COORDINATES (A.U.)
----------------------------
  NO LB      ZA    FRAG     MASS         X           Y           Z
   0 C     6.0000    0    12.011   -6.747612   -2.713534    0.009486
   1 H     1.0000    0     1.008   -6.652923   -3.874702   -1.725458
   2 O     8.0000    0    15.999   -4.858689   -0.854105    0.034213
   3 C     6.0000    0    12.011   -2.404076   -1.844715   -0.023910
   4 C     6.0000    0    12.011   -0.574798    0.303533   -0.009917
   5 C     6.0000    0    12.011    2.028979    0.252282   -0.001941
   6 N     7.0000    0    14.007    3.179813    2.570702    0.006468
   7 C     6.0000    0    12.011    1.539837    4.362422    0.003711
   8 S    16.0000    0    32.060   -1.601792    3.373914   -0.008434
   9 H     1.0000    0     1.008    2.018202    6.372299    0.009686
  10 C     6.0000    0    12.011    3.476483   -2.129196   -0.001967
  11 O     8.0000    0    15.999    2.499800   -4.197507   -0.025909
  12 O     8.0000    0    15.999    5.967460   -1.790281    0.025441
  13 H     1.0000    0     1.008    6.770508   -3.429826    0.021862
  14 H     1.0000    0     1.008   -2.091282   -3.019030   -1.728766
  15 H     1.0000    0     1.008   -2.036926   -3.089026    1.618404
  16 H     1.0000    0     1.008   -8.570577   -1.726859    0.072700
  17 H     1.0000    0     1.008   -6.593264   -3.979542    1.664804

--------------------------------
INTERNAL COORDINATES (ANGSTROEM)
--------------------------------
 C      0   0   0     0.000000000000     0.00000000     0.00000000
 H      1   0   0     1.105879833450     0.00000000     0.00000000
 O      1   2   0     1.402680795609   111.42156562     0.00000000
 C      3   1   2     1.401052181953   113.45338944   298.95808974
 C      4   3   1     1.493126135599   108.42611979   179.59007575
 C      5   4   3     1.378132667926   129.28780843   178.58511907
 N      6   5   4     1.369696323255   115.27197215   179.89946562
 C      7   6   5     1.285344116623   111.13228320   359.96449871
 S      5   4   3     1.713256473511   121.09035693   358.43870513
 H      8   7   6     1.093295497730   124.14372841   179.98038870
 C      6   5   4     1.474754256279   122.41940797   359.88853663
 O     11   6   5     1.210462409579   123.42866918     0.51001057
 O     11   6   5     1.330391692794   113.54254418   180.47338618
 H     13  11   6     0.966093591770   108.34521170   180.05272473
 H      4   3   1     1.107914373132   111.48432925    58.94516990
 H      4   3   1     1.107524385711   111.58358037   300.35803877
 H      1   2   3     1.097417956589   109.23794629   118.00627060
 H      1   2   3     1.105799951022   108.52150572   236.98191365

---------------------------
INTERNAL COORDINATES (A.U.)
---------------------------
 C      0   0   0     0.000000000000     0.00000000     0.00000000
 H      1   0   0     2.089810022247     0.00000000     0.00000000
 O      1   2   0     2.650682557011   111.42156562     0.00000000
 C      3   1   2     2.647604923224   113.45338944   298.95808974
 C      4   3   1     2.821599479683   108.42611979   179.59007575
 C      5   4   3     2.604293318591   129.28780843   178.58511907
 N      6   5   4     2.588350937591   115.27197215   179.89946562
 C      7   6   5     2.428948368265   111.13228320   359.96449871
 S      5   4   3     3.237585532104   121.09035693   358.43870513
 H      8   7   6     2.066029074159   124.14372841   179.98038870
 C      6   5   4     2.786881659201   122.41940797   359.88853663
 O     11   6   5     2.287442449511   123.42866918     0.51001057
 O     11   6   5     2.514075950224   113.54254418   180.47338618
 H     13  11   6     1.825652308181   108.34521170   180.05272473
 H      4   3   1     2.093654745054   111.48432925    58.94516990
 H      4   3   1     2.092917775634   111.58358037   300.35803877
 H      1   2   3     2.073819392401   109.23794629   118.00627060
 H      1   2   3     2.089659066336   108.52150572   236.98191365


Diagonalization of the overlap matrix:
Smallest eigenvalue                        ... 9.474e-04
Time for diagonalization                   ...    0.005 sec
Threshold for overlap eigenvalues          ... 1.000e-08
Number of eigenvalues below threshold      ... 0
Time for construction of square roots      ...    0.002 sec
Total time needed                          ...    0.008 sec

-------------------
DFT GRID GENERATION
-------------------

General Integration Accuracy     IntAcc      ...  4.340
Radial Grid Type                 RadialGrid  ... Gauss-Chebyshev
Angular Grid (max. acc.)         AngularGrid ... Lebedev-110
Angular grid pruning method      GridPruning ... 3 (G Style)
Weight generation scheme         WeightScheme... Becke
Basis function cutoff            BFCut       ...    1.0000e-11
Integration weight cutoff        WCut        ...    1.0000e-14
Grids for H and He will be reduced by one unit

# of grid points (after initial pruning)     ...  24150 (   0.0 sec)
# of grid points (after weights+screening)   ...  22459 (   0.0 sec)
nearest neighbour list constructed           ...    0.0 sec
Grid point re-assignment to atoms done       ...    0.0 sec
Grid point division into batches done        ...    0.0 sec
Reduced shell lists constructed in    0.1 sec

Total number of grid points                  ...    22459
Total number of batches                      ...      359
Average number of points per batch           ...       62
Average number of grid points per atom       ...     1248
Average number of shells per batch           ...    54.68 (61.44%)
Average number of basis functions per batch  ...   116.45 (60.34%)
Average number of large shells per batch     ...    40.52 (74.10%)
Average number of large basis fcns per batch ...    86.05 (73.89%)
Maximum spatial batch extension              ...  18.11, 19.52, 25.60 au
Average spatial batch extension              ...   3.48,  3.71,  4.15 au

Time for grid setup =    0.203 sec

--------------
SCF ITERATIONS
--------------
ITER       Energy         Delta-E        Max-DP      RMS-DP      [F,P]     Damp
               ***  Starting incremental Fock matrix formation  ***
                      *** Initiating the SOSCF procedure ***
                      *** Re-Reading the Fockian *** 
                      *** Removing any level shift *** 
ITER      Energy       Delta-E        Grad      Rot      Max-DP    RMS-DP
  0   -910.80833976 -910.8083397568  0.002072  0.002072  0.008437  0.000303
               *** Restarting incremental Fock matrix formation ***
  1   -910.80890330  -0.0005635391  0.000744  0.001636  0.003293  0.000117
  2   -910.80895878  -0.0000554814  0.000621  0.001298  0.002454  0.000075
  3   -910.80897073  -0.0000119521  0.000298  0.000291  0.000765  0.000028
  4   -910.80897482  -0.0000040933  0.000087  0.000135  0.000350  0.000009
  5   -910.80897492  -0.0000000999  0.000073  0.000075  0.000143  0.000005
  6   -910.80897514  -0.0000002127  0.000008  0.000028  0.000037  0.000001
  7   -910.80897514  -0.0000000035  0.000010  0.000022  0.000017  0.000001
                  ***Gradient check signals convergence***
              ***Rediagonalizing the Fockian in SOSCF/NRSCF***

               *****************************************************
               *                     SUCCESS                       *
               *           SCF CONVERGED AFTER   8 CYCLES          *
               *****************************************************

Setting up the final grid:

General Integration Accuracy     IntAcc      ...  4.670
Radial Grid Type                 RadialGrid  ... Gauss-Chebyshev
Angular Grid (max. acc.)         AngularGrid ... Lebedev-302
Angular grid pruning method      GridPruning ... 3 (G Style)
Weight generation scheme         WeightScheme... Becke
Basis function cutoff            BFCut       ...    1.0000e-11
Integration weight cutoff        WCut        ...    1.0000e-14
Grids for H and He will be reduced by one unit

# of grid points (after initial pruning)     ...  92724 (   0.0 sec)
# of grid points (after weights+screening)   ...  84964 (   0.2 sec)
nearest neighbour list constructed           ...    0.0 sec
Grid point re-assignment to atoms done       ...    0.0 sec
Grid point division into batches done        ...    0.3 sec
Reduced shell lists constructed in    0.7 sec

Total number of grid points                  ...    84964
Total number of batches                      ...     1335
Average number of points per batch           ...       63
Average number of grid points per atom       ...     4720
Average number of shells per batch           ...    49.73 (55.87%)
Average number of basis functions per batch  ...   105.20 (54.51%)
[...]
 145   0.0000       1.999369        54.4056 
 146   0.0000       2.019538        54.9544 
 147   0.0000       2.043778        55.6140 
 148   0.0000       2.050280        55.7910 
 149   0.0000       2.091874        56.9228 
 150   0.0000       2.158972        58.7486 
 151   0.0000       2.167735        58.9871 
 152   0.0000       2.223487        60.5042 
 153   0.0000       2.238690        60.9179 
 154   0.0000       2.243194        61.0404 
 155   0.0000       2.283335        62.1327 
 156   0.0000       2.307213        62.7824 
 157   0.0000       2.381236        64.7967 
 158   0.0000       2.403513        65.4029 
 159   0.0000       2.427241        66.0486 
 160   0.0000       2.442735        66.4702 
 161   0.0000       2.483398        67.5767 
 162   0.0000       2.502151        68.0870 
 163   0.0000       2.508899        68.2706 
 164   0.0000       2.529482        68.8307 
 165   0.0000       2.598366        70.7051 
 166   0.0000       2.692436        73.2649 
 167   0.0000       2.739982        74.5587 
 168   0.0000       2.740274        74.5666 
 169   0.0000       2.769184        75.3533 
 170   0.0000       2.815595        76.6162 
 171   0.0000       2.826866        76.9229 
 172   0.0000       2.857736        77.7630 
 173   0.0000       2.886327        78.5409 
 174   0.0000       2.932279        79.7914 
 175   0.0000       2.945392        80.1482 
 176   0.0000       2.966982        80.7357 
 177   0.0000       2.986682        81.2717 
 178   0.0000       3.027707        82.3881 
 179   0.0000       3.031759        82.4984 
 180   0.0000       3.047855        82.9364 
 181   0.0000       3.181710        86.5787 
 182   0.0000       3.215924        87.5097 
 183   0.0000       3.227801        87.8329 
 184   0.0000       3.279327        89.2350 
 185   0.0000       3.300153        89.8017 
 186   0.0000       3.376994        91.8927 
 187   0.0000       3.406696        92.7009 
 188   0.0000       3.450181        93.8842 
 189   0.0000       3.599669        97.9520 
 190   0.0000       3.649792        99.3159 
 191   0.0000       3.765263       102.4580 
 192   0.0000       3.905691       106.2793 

                    ********************************
                    * MULLIKEN POPULATION ANALYSIS *
                    ********************************

-----------------------
MULLIKEN ATOMIC CHARGES
-----------------------
   0 C :    0.142100
   1 H :    0.023708
   2 O :   -0.414929
   3 C :    0.294869
   4 C :   -0.264746
   5 C :   -0.020083
   6 N :   -0.111688
   7 C :   -0.011143
   8 S :    0.144335
   9 H :    0.077758
  10 C :    0.178620
  11 O :   -0.245572
  12 O :   -0.156692
  13 H :    0.193204
  14 H :    0.047258
  15 H :    0.047534
  16 H :    0.052015
  17 H :    0.023452
Sum of atomic charges:    0.0000000

--------------------------------
MULLIKEN REDUCED ORBITAL CHARGES
--------------------------------
  0 C s       :     3.023525  s :     3.023525
      pz      :     1.023330  p :     2.778668
      px      :     0.877422
      py      :     0.877915
      dz2     :     0.008437  d :     0.055707
      dxz     :     0.005154
      dyz     :     0.015286
      dx2y2   :     0.010225
      dxy     :     0.016605
  1 H s       :     0.954106  s :     0.954106
      pz      :     0.011561  p :     0.022186
      px      :     0.003292
      py      :     0.007333
  2 O s       :     3.760819  s :     3.760819
      pz      :     1.878830  p :     4.637445
      px      :     1.198237
      py      :     1.560379
      dz2     :     0.002404  d :     0.016665
      dxz     :     0.002064
      dyz     :     0.001877
      dx2y2   :     0.003496
      dxy     :     0.006824
  3 C s       :     2.910690  s :     2.910690
      pz      :     1.047772  p :     2.730057
      px      :     0.730850
      py      :     0.951435
      dz2     :     0.008940  d :     0.064384
      dxz     :     0.012655
      dyz     :     0.011557
      dx2y2   :     0.013079
      dxy     :     0.018153
  4 C s       :     3.151171  s :     3.151171
      pz      :     1.033065  p :     3.070580
      px      :     1.040634
      py      :     0.996881
      dz2     :     0.003454  d :     0.042994
      dxz     :     0.008323
      dyz     :     0.007411
      dx2y2   :     0.012689
      dxy     :     0.011117
  5 C s       :     3.079926  s :     3.079926
      pz      :     1.090164  p :     2.883501
      px      :     0.946536
      py      :     0.846802
      dz2     :     0.004303  d :     0.056656
      dxz     :     0.007051
      dyz     :     0.007452
      dx2y2   :     0.019174
      dxy     :     0.018676
  6 N s       :     3.513405  s :     3.513405
      pz      :     1.117871  p :     3.566307
      px      :     1.459357
      py      :     0.989080
      dz2     :     0.003334  d :     0.031975
      dxz     :     0.005782
      dyz     :     0.005336
      dx2y2   :     0.005599
      dxy     :     0.011924
  7 C s       :     3.149059  s :     3.149059
      pz      :     1.020504  p :     2.803708
      px      :     0.833476
      py      :     0.949728
      dz2     :     0.003764  d :     0.058377
      dxz     :     0.009161
      dyz     :     0.006033
      dx2y2   :     0.025702
      dxy     :     0.013716
  8 S s       :     5.844357  s :     5.844357
      pz      :     3.619061  p :     9.899501
      px      :     3.267857
      py      :     3.012584
      dz2     :     0.012636  d :     0.111807
      dxz     :     0.012493
      dyz     :     0.019463
      dx2y2   :     0.038391
      dxy     :     0.028824
  9 H s       :     0.900388  s :     0.900388
      pz      :     0.004261  p :     0.021854
      px      :     0.002650
      py      :     0.014943
 10 C s       :     3.037443  s :     3.037443
      pz      :     0.794166  p :     2.642805
      px      :     0.857061
      py      :     0.991578
      dz2     :     0.007580  d :     0.141132
      dxz     :     0.021821
      dyz     :     0.020458
      dx2y2   :     0.051030
      dxy     :     0.040243
 11 O s       :     3.718725  s :     3.718725
      pz      :     1.430717  p :     4.508342
      px      :     1.670531
      py      :     1.407094
      dz2     :     0.002067  d :     0.018505
      dxz     :     0.001116
      dyz     :     0.004879
      dx2y2   :     0.004932
      dxy     :     0.005511
 12 O s       :     3.663893  s :     3.663893
      pz      :     1.771338  p :     4.478050
      px      :     1.283459
      py      :     1.423254
      dz2     :     0.002075  d :     0.014749
      dxz     :     0.002203
      dyz     :     0.000901
      dx2y2   :     0.006207
      dxy     :     0.003363
 13 H s       :     0.738953  s :     0.738953
      pz      :     0.016415  p :     0.067842
      px      :     0.017976
      py      :     0.033451
 14 H s       :     0.931084  s :     0.931084
      pz      :     0.011372  p :     0.021659
      px      :     0.002584
      py      :     0.007703
 15 H s       :     0.930751  s :     0.930751
      pz      :     0.011046  p :     0.021715
      px      :     0.002677
      py      :     0.007992
 16 H s       :     0.926379  s :     0.926379
      pz      :     0.005090  p :     0.021606
      px      :     0.010968
      py      :     0.005548
 17 H s       :     0.954260  s :     0.954260
      pz      :     0.011258  p :     0.022288
      px      :     0.003293
      py      :     0.007736


                     *******************************
                     * LOEWDIN POPULATION ANALYSIS *
                     *******************************

----------------------
LOEWDIN ATOMIC CHARGES
----------------------
   0 C :    0.062883
   1 H :    0.011026
   2 O :   -0.180458
   3 C :    0.062664
   4 C :   -0.162433
   5 C :   -0.113056
   6 N :   -0.090021
   7 C :   -0.137649
   8 S :    0.456531
   9 H :    0.027827
  10 C :    0.083750
  11 O :   -0.203589
  12 O :   -0.015372
  13 H :    0.099751
  14 H :    0.029536
  15 H :    0.029479
  16 H :    0.028232
  17 H :    0.010901

-------------------------------
LOEWDIN REDUCED ORBITAL CHARGES
-------------------------------
  0 C s       :     2.845020  s :     2.845020
      pz      :     1.073569  p :     2.963226
      px      :     0.933168
      py      :     0.956489
      dz2     :     0.019712  d :     0.128872
      dxz     :     0.009520
      dyz     :     0.039547
      dx2y2   :     0.022380
      dxy     :     0.037713
  1 H s       :     0.925726  s :     0.925726
      pz      :     0.032582  p :     0.063248
      px      :     0.009722
      py      :     0.020944
  2 O s       :     3.446762  s :     3.446762
      pz      :     1.861996  p :     4.703333
      px      :     1.244884
      py      :     1.596453
      dz2     :     0.003995  d :     0.030363
      dxz     :     0.003888
      dyz     :     0.002305
      dx2y2   :     0.007111
      dxy     :     0.013064
  3 C s       :     2.832879  s :     2.832879
      pz      :     1.086465  p :     2.953332
      px      :     0.844143
      py      :     1.022724
      dz2     :     0.021073  d :     0.151124
      dxz     :     0.025701
      dyz     :     0.031206
      dx2y2   :     0.028302
      dxy     :     0.044843
  4 C s       :     2.924633  s :     2.924633
      pz      :     1.015448  p :     3.136964
      px      :     1.095077
      py      :     1.026439
      dz2     :     0.007359  d :     0.100836
      dxz     :     0.016420
      dyz     :     0.012840
      dx2y2   :     0.033540
      dxy     :     0.030677
  5 C s       :     2.858858  s :     2.858858
      pz      :     1.068763  p :     3.113062
      px      :     1.052304
      py      :     0.991995
      dz2     :     0.010304  d :     0.141136
      dxz     :     0.014627
      dyz     :     0.013270
      dx2y2   :     0.052015
      dxy     :     0.050920
  6 N s       :     3.227403  s :     3.227403
      pz      :     1.119702  p :     3.797110
      px      :     1.544213
      py      :     1.133195
      dz2     :     0.006743  d :     0.065508
      dxz     :     0.006498
      dyz     :     0.011539
      dx2y2   :     0.012706
      dxy     :     0.028022
  7 C s       :     2.930774  s :     2.930774
      pz      :     1.021094  p :     3.076199
      px      :     1.001551
      py      :     1.053554
      dz2     :     0.008152  d :     0.130676
      dxz     :     0.017590
      dyz     :     0.009252
      dx2y2   :     0.060096
      dxy     :     0.035586
  8 S s       :     5.496000  s :     5.496000
      pz      :     3.569339  p :     9.906436
      px      :     3.294188
      py      :     3.042908
      dz2     :     0.016321  d :     0.141034
      dxz     :     0.012387
      dyz     :     0.023549
      dx2y2   :     0.051820
      dxy     :     0.036957
  9 H s       :     0.901319  s :     0.901319
      pz      :     0.014685  p :     0.070854
      px      :     0.011605
      py      :     0.044564
 10 C s       :     2.839614  s :     2.839614
      pz      :     0.792349  p :     2.771999
      px      :     0.924203
      py      :     1.055447
      dz2     :     0.016993  d :     0.304638
      dxz     :     0.040930
      dyz     :     0.037398
      dx2y2   :     0.114542
      dxy     :     0.094775
 11 O s       :     3.539998  s :     3.539998
      pz      :     1.424588  p :     4.632392
      px      :     1.696031
      py      :     1.511773
      dz2     :     0.004419  d :     0.031199
      dxz     :     0.001358
      dyz     :     0.005745
      dx2y2   :     0.009095
      dxy     :     0.010582
 12 O s       :     3.414965  s :     3.414965
      pz      :     1.725270  p :     4.571926
      px      :     1.343924
      py      :     1.502732
      dz2     :     0.004687  d :     0.028481
      dxz     :     0.003227
      dyz     :     0.000439
      dx2y2   :     0.013036
      dxy     :     0.007093
 13 H s       :     0.724871  s :     0.724871
      pz      :     0.045015  p :     0.175378
      px      :     0.040344
      py      :     0.090019
 14 H s       :     0.905105  s :     0.905105
      pz      :     0.032880  p :     0.065359
      px      :     0.010115
      py      :     0.022364
 15 H s       :     0.905005  s :     0.905005
      pz      :     0.031789  p :     0.065516
      px      :     0.010449
      py      :     0.023278
 16 H s       :     0.909211  s :     0.909211
      pz      :     0.012377  p :     0.062558
      px      :     0.033750
      py      :     0.016430
 17 H s       :     0.925807  s :     0.925807
      pz      :     0.031415  p :     0.063292
      px      :     0.009728
      py      :     0.022149


                      *****************************
                      * MAYER POPULATION ANALYSIS *
                      *****************************

  NA   - Mulliken gross atomic population
  ZA   - Total nuclear charge
  QA   - Mulliken gross atomic charge
  VA   - Mayer's total valence
  BVA  - Mayer's bonded valence
  FA   - Mayer's free valence

  ATOM       NA         ZA         QA         VA         BVA        FA
  0 C      5.8579     6.0000     0.1421     3.9327     3.9327    -0.0000
  1 H      0.9763     1.0000     0.0237     0.9878     0.9878     0.0000
  2 O      8.4149     8.0000    -0.4149     2.0546     2.0546    -0.0000
  3 C      5.7051     6.0000     0.2949     3.9793     3.9793    -0.0000
  4 C      6.2647     6.0000    -0.2647     3.9649     3.9649     0.0000
  5 C      6.0201     6.0000    -0.0201     3.8878     3.8878     0.0000
  6 N      7.1117     7.0000    -0.1117     3.1639     3.1639     0.0000
  7 C      6.0111     6.0000    -0.0111     3.9336     3.9336     0.0000
  8 S     15.8557    16.0000     0.1443     2.5505     2.5505     0.0000
  9 H      0.9222     1.0000     0.0778     0.9909     0.9909    -0.0000
 10 C      5.8214     6.0000     0.1786     4.3996     4.3996     0.0000
 11 O      8.2456     8.0000    -0.2456     2.2581     2.2581     0.0000
 12 O      8.1567     8.0000    -0.1567     2.2954     2.2954     0.0000
 13 H      0.8068     1.0000     0.1932     1.0249     1.0249     0.0000
 14 H      0.9527     1.0000     0.0473     0.9978     0.9978    -0.0000
 15 H      0.9525     1.0000     0.0475     0.9988     0.9988     0.0000
 16 H      0.9480     1.0000     0.0520     0.9899     0.9899    -0.0000
 17 H      0.9765     1.0000     0.0235     0.9879     0.9879     0.0000

  Mayer bond orders larger than 0.100000
B(  0-C ,  1-H ) :   0.9702 B(  0-C ,  2-O ) :   0.9745 B(  0-C , 16-H ) :   0.9831 
B(  0-C , 17-H ) :   0.9703 B(  2-O ,  3-C ) :   1.0183 B(  3-C ,  4-C ) :   1.0341 
B(  3-C , 14-H ) :   0.9265 B(  3-C , 15-H ) :   0.9264 B(  4-C ,  5-C ) :   1.5688 
B(  4-C ,  8-S ) :   1.2037 B(  5-C ,  6-N ) :   1.3335 B(  5-C , 10-C ) :   0.9442 
B(  6-N ,  7-C ) :   1.7178 B(  7-C ,  8-S ) :   1.1452 B(  7-C ,  9-H ) :   0.9624 
B( 10-C , 11-O ) :   2.0807 B( 10-C , 12-O ) :   1.3223 B( 12-O , 13-H ) :   0.9452 


-------
TIMINGS
-------

Total SCF time: 0 days 0 hours 0 min 43 sec 

Total time                  ....      43.356 sec
Sum of individual times     ....      43.163 sec  ( 99.6%)

Fock matrix formation       ....      41.963 sec  ( 96.8%)
  XC integration            ....       2.634 sec  (  6.3% of F)
    Basis function eval.    ....       0.823 sec  ( 31.2% of XC)
    Density eval.           ....       0.444 sec  ( 16.8% of XC)
    XC-Functional eval.     ....       0.737 sec  ( 28.0% of XC)
    XC-Potential eval.      ....       0.551 sec  ( 20.9% of XC)
Diagonalization             ....       0.004 sec  (  0.0%)
Density matrix formation    ....       0.004 sec  (  0.0%)
Population analysis         ....       0.004 sec  (  0.0%)
Initial guess               ....       0.004 sec  (  0.0%)
Orbital Transformation      ....       0.000 sec  (  0.0%)
Orbital Orthonormalization  ....       0.002 sec  (  0.0%)
DIIS solution               ....       0.001 sec  (  0.0%)
SOSCF solution              ....       0.014 sec  (  0.0%)
Grid generation             ....       1.169 sec  (  2.7%)


-------------------------------------------------------------------------------
                          DFT DISPERSION CORRECTION                            
                                                                               
                              DFTD3 V3.1  Rev 1                                
                              USING zero damping                               
-------------------------------------------------------------------------------
The omegaB97X-D3 functional is recognized. Fit by Chai et al.
Active option DFTDOPT                   ...         3   

molecular C6(AA) [au] = 4317.362330 


            DFT-D V3
 parameters
 s6 scaling factor         :     1.0000 
 rs6 scaling factor        :     1.2810 
 s8 scaling factor         :     1.0000 
 rs8 scaling factor        :     1.0940 
 Damping factor alpha6     :    14.0000 
 Damping factor alpha8     :    16.0000 
 ad hoc parameters k1-k3   :    16.0000     1.3333    -4.0000 

 Edisp/kcal,au: -3.494526110442  -0.005568881239 
 E6   /kcal   :  -1.428783734 
 E8   /kcal   :  -2.065742377 
 % E8         :  59.113662669 

-------------------------   ----------------
Dispersion correction           -0.005568881
-------------------------   ----------------


-------------------------   --------------------
FINAL SINGLE POINT ENERGY      -910.812698043708
-------------------------   --------------------

                                *** OPTIMIZATION RUN DONE ***

                            ***************************************
                            *     ORCA property calculations      *
                            ***************************************

                                    ---------------------
                                    Active property flags
                                    ---------------------
   (+) Dipole Moment


------------------------------------------------------------------------------
                       ORCA ELECTRIC PROPERTIES CALCULATION
------------------------------------------------------------------------------

Dipole Moment Calculation                       ... on
Quadrupole Moment Calculation                   ... off
Polarizability Calculation                      ... off
GBWName                                         ... 057465459.gbw
Electron density file                           ... 057465459.scfp
The origin for moment calculation is the CENTER OF MASS  = ( 0.016015,  0.004032 -0.000372)

-------------
DIPOLE MOMENT
-------------
                                X             Y             Z
Electronic contribution:      7.95490       6.29710       0.02007
Nuclear contribution   :     -8.55676      -6.45329      -0.02560
                        -----------------------------------------
Total Dipole Moment    :     -0.60186      -0.15618      -0.00553
                        -----------------------------------------
Magnitude (a.u.)       :      0.62182
Magnitude (Debye)      :      1.58054



--------------------
Rotational spectrum 
--------------------
 
Rotational constants in cm-1:     0.045287     0.025618     0.016464 
Rotational constants in MHz :  1357.659991   768.004621   493.591854 

 Dipole components along the rotational axes: 
x,y,z [a.u.] :    -0.602888    -0.152161    -0.005586 
x,y,z [Debye]:    -1.532418    -0.386762    -0.014197 

 

Timings for individual modules:

Sum of individual times         ...      625.546 sec (=  10.426 min)
GTO integral calculation        ...        3.045 sec (=   0.051 min)   0.5 %
SCF iterations                  ...      415.930 sec (=   6.932 min)  66.5 %
SCF Gradient evaluation         ...      204.948 sec (=   3.416 min)  32.8 %
Geometry relaxation             ...        1.624 sec (=   0.027 min)   0.3 %
                             ****ORCA TERMINATED NORMALLY****
TOTAL RUN TIME: 0 days 0 hours 10 minutes 28 seconds 417 msec
