
                                 *****************
                                 * O   R   C   A *
                                 *****************

           --- An Ab Initio, DFT and Semiempirical electronic structure package ---

                  #######################################################
                  #                        -***-                        #
                  #          Department of theory and spectroscopy      #
                  #               Directorship: Frank Neese             #
                  #        Max Planck Institute fuer Kohlenforschung    #
                  #                Kaiser Wilhelm Platz 1               #
                  #                 D-45470 Muelheim/Ruhr               #
                  #                      Germany                        #
                  #                                                     #
                  #                  All rights reserved                #
                  #                        -***-                        #
                  #######################################################


                         Program Version 4.2.0 -  RELEASE  -


 With contributions from (in alphabetic order):
   Daniel Aravena         : Magnetic Suceptibility
   Michael Atanasov       : Ab Initio Ligand Field Theory (pilot matlab implementation)
   Alexander A. Auer      : GIAO ZORA, VPT2
   Ute Becker             : Parallelization
   Giovanni Bistoni       : ED, misc. LED, open-shell LED, HFLED
   Martin Brehm           : Molecular dynamics
   Dmytro Bykov           : SCF Hessian
   Vijay G. Chilkuri      : MRCI spin determinant printing, contributions to CSF-ICE
   Dipayan Datta          : RHF DLPNO-CCSD density
   Achintya Kumar Dutta   : EOM-CC, STEOM-CC
   Dmitry Ganyushin       : Spin-Orbit,Spin-Spin,Magnetic field MRCI
   Miquel Garcia          : C-PCM Hessian, Gaussian charge scheme
   Yang Guo               : DLPNO-NEVPT2, CIM, IAO-localization
   Andreas Hansen         : Spin unrestricted coupled pair/coupled cluster methods
   Benjamin Helmich-Paris : CASSCF linear response (MC-RPA)
   Lee Huntington         : MR-EOM, pCC
   Robert Izsak           : Overlap fitted RIJCOSX, COSX-SCS-MP3, EOM
   Christian Kollmar      : KDIIS, OOCD, Brueckner-CCSD(T), CCSD density
   Simone Kossmann        : Meta GGA functionals, TD-DFT gradient, OOMP2, MP2 Hessian
   Martin Krupicka        : AUTO-CI
   Lucas Lang             : DCDCAS
   Dagmar Lenk            : GEPOL surface, SMD
   Dimitrios Liakos       : Extrapolation schemes; Compound Job, initial MDCI parallelization
   Dimitrios Manganas     : Further ROCIS development; embedding schemes
   Dimitrios Pantazis     : SARC Basis sets
   Taras Petrenko         : DFT Hessian,TD-DFT gradient, ASA, ECA, R-Raman, ABS, FL, XAS/XES, NRVS
   Peter Pinski           : DLPNO-MP2, DLPNO-MP2 Gradient
   Christoph Reimann      : Effective Core Potentials
   Marius Retegan         : Local ZFS, SOC
   Christoph Riplinger    : Optimizer, TS searches, QM/MM, DLPNO-CCSD(T), (RO)-DLPNO pert. Triples
   Tobias Risthaus        : Range-separated hybrids, TD-DFT gradient, RPA, STAB
   Michael Roemelt        : Original ROCIS implementation
   Masaaki Saitow         : Open-shell DLPNO-CCSD energy and density
   Barbara Sandhoefer     : DKH picture change effects
   Avijit Sen             : IP-ROCIS
   Kantharuban Sivalingam : CASSCF convergence, NEVPT2, FIC-MRCI
   Bernardo de Souza      : ESD, SOC TD-DFT
   Georgi Stoychev        : AutoAux, RI-MP2 NMR
   Willem Van den Heuvel  : Paramagnetic NMR
   Boris Wezisla          : Elementary symmetry handling
   Frank Wennmohs         : Technical directorship


 We gratefully acknowledge several colleagues who have allowed us to
 interface, adapt or use parts of their codes:
   Stefan Grimme, W. Hujo, H. Kruse,             : VdW corrections, initial TS optimization,
                  C. Bannwarth                     DFT functionals, gCP, sTDA/sTD-DF
   Ed Valeev, F. Pavosevic, A. Kumar             : LibInt (2-el integral package), F12 methods
   Garnet Chan, S. Sharma, J. Yang, R. Olivares  : DMRG
   Ulf Ekstrom                                   : XCFun DFT Library
   Mihaly Kallay                                 : mrcc  (arbitrary order and MRCC methods)
   Andreas Klamt, Michael Diedenhofen            : otool_cosmo (COSMO solvation model)
   Jiri Pittner, Ondrej Demel                    : Mk-CCSD
   Frank Weinhold                                : gennbo (NPA and NBO analysis)
   Christopher J. Cramer and Donald G. Truhlar   : smd solvation model
   Lars Goerigk                                  : TD-DFT with DH, B97 family of functionals
   V. Asgeirsson, H. Jonsson                     : NEB implementation
   FAccTs GmbH                                   : IRC, NEB, NEB-TS, Multilevel, MM, QM/MM, CI optimization
   S Lehtola, MJT Oliveira, MAL Marques          : LibXC Library


 Your calculation uses the libint2 library for the computation of 2-el integrals
 For citations please refer to: http://libint.valeyev.net

 Your ORCA version has been built with support for libXC version: 4.2.3
 For citations please refer to: https://tddft.org/programs/libxc/

 This ORCA versions uses:
   CBLAS   interface :  Fast vector & matrix operations
   LAPACKE interface :  Fast linear algebra routines
   SCALAPACK package :  Parallel linear algebra routines


Your calculation utilizes the atom-pairwise dispersion correction
with the zero-damping scheme (D30)
Cite in your paper:
S.Grimme, J.Antony, S.Ehrlich and H.Krieg, J.Chem.Phys., 132, (2010), 154104 
   

XCFun DFT library Copyright 2009-2010 Ulf Ekstrom and contributors.
See http://admol.org/xcfun for more information. This is free soft-
ware; see the source code for copying conditions. There is ABSOLUTELY
NO WARRANTY; not even for MERCHANTABILITY or FITNESS FOR A PARTICULAR
PURPOSE. For details see the documentation. Scientific users of this 
library should cite U. Ekstrom, L. Visscher, R. Bast, A. J. Thorvald-
sen and K. Ruud; J.Chem.Theor.Comp. 2010, DOI: 10.1021/ct100117s
XCFun Version 0.99 
----- Orbital basis set information -----
Your calculation utilizes the basis: def2-SVP
   F. Weigend and R. Ahlrichs, Phys. Chem. Chem. Phys. 7, 3297 (2005).

================================================================================
                                        WARNINGS
                       Please study these warnings very carefully!
================================================================================


WARNING: Geometry Optimization
  ===> : Switching off AutoStart
         For restart on a previous wavefunction, please use MOREAD

INFO   : the flag for use of LIBINT has been found!

================================================================================
                                       INPUT FILE
================================================================================
NAME = 057941108.inp
|  1> # ORCA input file
|  2> # SCF done        -48.376121248309          0.000562413356
|  3> ! wB97X-D3 def2-SVP Opt
|  4> * xyz 0 1
|  5>    C        0.94150        -0.60130         0.46240
|  6>    C        5.05820        -3.05390        -0.19180
|  7>    C        3.75320        -3.86260        -0.04380
|  8>    C        3.10570         0.68170         0.19040
|  9>    C        5.23150        -0.44310        -0.14590
| 10>    C        2.41870        -0.52450         0.25000
| 11>    C        4.55830        -1.64330        -0.08470
| 12>    C        4.47620         0.71290        -0.00810
| 13>    C        3.17940        -1.68120         0.10910
| 14>    C        5.67300         2.40530         1.01210
| 15>    F        4.81420         2.52290         2.04490
| 16>    F        6.66330         1.61480         1.47660
| 17>    F        6.20730         3.60720         0.81940
| 18>    O        2.67810        -2.93790         0.14260
| 19>    O        5.11970         1.97970        -0.09910
| 20>    H        0.49750         0.38960         0.46630
| 21>    H        0.72710        -1.09100         1.41120
| 22>    H        0.48340        -1.19990        -0.32280
| 23>    H        5.54430        -3.23620        -1.15080
| 24>    H        5.77240        -3.28450         0.59980
| 25>    H        3.77270        -4.52900         0.82330
| 26>    H        3.53040        -4.45630        -0.93530
| 27>    H        2.57050         1.61230         0.29580
| 28>    H        6.29800        -0.39490        -0.29420
| 29> *
| 30> 
| 31>                          ****END OF INPUT****
================================================================================

                       *****************************
                       * Geometry Optimization Run *
                       *****************************

Geometry optimization settings:
Update method            Update   .... BFGS
Choice of coordinates    CoordSys .... Z-matrix Internals
Initial Hessian          InHess   .... Almoef's Model

Convergence Tolerances:
Energy Change            TolE     ....  5.0000e-06 Eh
Max. Gradient            TolMAXG  ....  3.0000e-04 Eh/bohr
RMS Gradient             TolRMSG  ....  1.0000e-04 Eh/bohr
Max. Displacement        TolMAXD  ....  4.0000e-03 bohr
RMS Displacement         TolRMSD  ....  2.0000e-03 bohr
Strict Convergence                ....  False
------------------------------------------------------------------------------
                        ORCA OPTIMIZATION COORDINATE SETUP
------------------------------------------------------------------------------

The optimization will be done in new redundant internal coordinates
Making redundant internal coordinates   ...  (new redundants) done
Evaluating the initial hessian          ...  (Almloef) done
Evaluating the coordinates              ...  done
Calculating the B-matrix                .... done
Calculating the G-matrix                .... done
Diagonalizing the G-matrix              .... done
Small eigenvalue found = 2.024e-02
Small eigenvalue found = 2.504e-02
The first mode is                       ....   58
The number of degrees of freedom        ....   66

    -----------------------------------------------------------------
                    Redundant Internal Coordinates


    -----------------------------------------------------------------
         Definition                    Initial Value    Approx d2E/dq
    -----------------------------------------------------------------
      1. B(C   2,C   1)                  1.5424         0.356970   
      2. B(C   5,C   0)                  1.4944         0.425822   
      3. B(C   5,C   3)                  1.3894         0.626169   
      4. B(C   6,C   1)                  1.5004         0.416507   
      5. B(C   6,C   4)                  1.3775         0.654228   
      6. B(C   7,C   4)                  1.3877         0.630022   
      7. B(C   7,C   3)                  1.3852         0.636024   
      8. B(C   8,C   6)                  1.3930         0.618021   
      9. B(C   8,C   5)                  1.3916         0.621199   
     10. B(F  10,C   9)                  1.3483         0.605926   
     11. B(F  11,C   9)                  1.3496         0.603208   
     12. B(F  12,C   9)                  1.3294         0.649724   
     13. B(O  13,C   8)                  1.3534         0.640107   
     14. B(O  13,C   2)                  1.4303         0.482655   
     15. B(O  14,C   7)                  1.4238         0.494286   
     16. B(O  14,C   9)                  1.3123         0.744552   
     17. B(H  15,C   0)                  1.0858         0.365654   
     18. B(H  16,C   0)                  1.0890         0.361380   
     19. B(H  17,C   0)                  1.0884         0.362160   
     20. B(H  18,C   1)                  1.0905         0.359429   
     21. B(H  19,C   1)                  1.0908         0.359017   
     22. B(H  20,C   2)                  1.0938         0.355148   
     23. B(H  21,C   2)                  1.0940         0.354814   
     24. B(H  22,C   3)                  1.0787         0.375382   
     25. B(H  23,C   4)                  1.0778         0.376551   
     26. A(C   5,C   0,H  16)          109.9714         0.331590   
     27. A(C   5,C   0,H  17)          109.9847         0.331708   
     28. A(H  15,C   0,H  17)          109.4127         0.291802   
     29. A(C   5,C   0,H  15)          110.9661         0.332236   
     30. A(H  15,C   0,H  16)          109.0698         0.291703   
     31. A(H  16,C   0,H  17)          107.3583         0.291263   
     32. A(C   6,C   1,H  18)          111.6205         0.330083   
     33. A(C   2,C   1,H  18)          111.9555         0.321811   
     34. A(H  18,C   1,H  19)          108.1187         0.290617   
     35. A(C   2,C   1,C   6)          101.7822         0.367312   
     36. A(C   2,C   1,H  19)          111.9313         0.321751   
     37. A(C   6,C   1,H  19)          111.4134         0.330020   
     38. A(C   1,C   2,O  13)          108.0299         0.374385   
     39. A(O  13,C   2,H  21)          107.6963         0.335489   
     40. A(H  20,C   2,H  21)          108.6026         0.289535   
     41. A(C   1,C   2,H  21)          112.2502         0.321131   
     42. A(C   1,C   2,H  20)          112.3608         0.321181   
     43. A(O  13,C   2,H  20)          107.6975         0.335541   
     44. A(C   7,C   3,H  22)          119.0440         0.356946   
     45. A(C   5,C   3,C   7)          120.9927         0.436843   
     46. A(C   5,C   3,H  22)          119.9630         0.356001   
     47. A(C   7,C   4,H  23)          120.9944         0.356560   
     48. A(C   6,C   4,H  23)          121.9148         0.358853   
     49. A(C   6,C   4,C   7)          117.0908         0.439559   
     50. A(C   0,C   5,C   8)          120.7999         0.406075   
     51. A(C   0,C   5,C   3)          122.6490         0.406647   
     52. A(C   3,C   5,C   8)          116.5500         0.434991   
     53. A(C   1,C   6,C   4)          130.7804         0.408213   
     54. A(C   4,C   6,C   8)          120.9089         0.438036   
     55. A(C   1,C   6,C   8)          108.3105         0.404126   
     56. A(C   3,C   7,C   4)          122.2747         0.437326   
     57. A(C   4,C   7,O  14)          119.2637         0.415299   
     58. A(C   3,C   7,O  14)          118.4496         0.416000   
     59. A(C   5,C   8,C   6)          122.1812         0.433967   
     60. A(C   6,C   8,O  13)          113.2887         0.433458   
     61. A(C   5,C   8,O  13)          124.5301         0.433858   
     62. A(F  11,C   9,F  12)          106.5318         0.426105   
     63. A(F  10,C   9,F  12)          106.7488         0.426448   
     64. A(F  10,C   9,F  11)          104.7630         0.420822   
     65. A(F  12,C   9,O  14)          109.8738         0.444542   
     66. A(F  11,C   9,O  14)          114.2595         0.438614   
     67. A(F  10,C   9,O  14)          114.1010         0.438970   
     68. A(C   2,O  13,C   8)          108.5831         0.412033   
     69. A(C   7,O  14,C   9)          115.1513         0.425082   
     70. D(H  21,C   2,C   1,C   6)    117.8452         0.010236   
     71. D(H  20,C   2,C   1,H  18)    121.2619         0.010236   
     72. D(H  20,C   2,C   1,C   6)   -119.4038         0.010236   
     73. D(O  13,C   2,C   1,C   6)     -0.7457         0.010236   
     74. D(H  20,C   2,C   1,H  19)     -0.3238         0.010236   
     75. D(O  13,C   2,C   1,H  19)    118.3344         0.010236   
     76. D(H  21,C   2,C   1,H  19)   -123.0748         0.010236   
     77. D(H  21,C   2,C   1,H  18)     -1.4891         0.010236   
     78. D(O  13,C   2,C   1,H  18)   -120.0800         0.010236   
     79. D(C   3,C   5,C   0,H  16)   -115.5111         0.013398   
     80. D(C   8,C   5,C   0,H  17)    -53.9451         0.013398   
     81. D(C   3,C   5,C   0,H  15)      5.2543         0.013398   
     82. D(C   8,C   5,C   0,H  16)     64.0849         0.013398   
     83. D(C   8,C   5,C   3,C   7)      0.3927         0.027165   
     84. D(C   0,C   5,C   3,H  22)     -0.2205         0.027165   
     85. D(C   0,C   5,C   3,C   7)   -179.9952         0.027165   
     86. D(C   3,C   5,C   0,H  17)    126.4588         0.013398   
     87. D(C   8,C   5,C   3,H  22)   -179.8326         0.027165   
     88. D(C   8,C   5,C   0,H  15)   -175.1497         0.013398   
     89. D(C   8,C   6,C   4,H  23)    179.9344         0.029829   
     90. D(C   8,C   6,C   4,C   7)     -0.0749         0.029829   
     91. D(C   1,C   6,C   4,C   7)   -179.9033         0.029829   
     92. D(C   8,C   6,C   1,H  19)   -118.8680         0.012834   
     93. D(C   8,C   6,C   1,H  18)    120.1508         0.012834   
     94. D(C   8,C   6,C   1,C   2)      0.5794         0.012834   
     95. D(C   1,C   6,C   4,H  23)      0.1059         0.029829   
     96. D(C   4,C   6,C   1,H  18)    -60.0042         0.012834   
     97. D(C   4,C   6,C   1,H  19)     60.9770         0.012834   
     98. D(C   4,C   6,C   1,C   2)   -179.5757         0.012834   
     99. D(C   4,C   7,C   3,H  22)    179.6960         0.028083   
    100. D(C   4,C   7,C   3,C   5)     -0.5273         0.028083   
    101. D(O  14,C   7,C   4,H  23)      1.6260         0.027521   
    102. D(O  14,C   7,C   4,C   6)   -178.3648         0.027521   
    103. D(C   3,C   7,C   4,H  23)   -179.6570         0.027521   
    104. D(C   3,C   7,C   4,C   6)      0.3521         0.027521   
    105. D(O  14,C   7,C   3,H  22)     -1.5770         0.028083   
    106. D(O  14,C   7,C   3,C   5)    178.1997         0.028083   
    107. D(O  13,C   8,C   6,C   4)    179.9175         0.026420   
    108. D(O  13,C   8,C   6,C   1)     -0.2193         0.026420   
    109. D(C   5,C   8,C   6,C   4)     -0.0330         0.026420   
    110. D(C   5,C   8,C   6,C   1)    179.8302         0.026420   
    111. D(O  13,C   8,C   5,C   3)    179.9325         0.026709   
    112. D(O  13,C   8,C   5,C   0)      0.3127         0.026709   
    113. D(C   6,C   8,C   5,C   3)     -0.1227         0.026709   
    114. D(C   6,C   8,C   5,C   0)   -179.7425         0.026709   
    115. D(C   2,O  13,C   8,C   6)     -0.2897         0.030207   
    116. D(C   2,O  13,C   8,C   5)    179.6595         0.030207   
    117. D(C   8,O  13,C   2,H  21)   -120.7933         0.018382   
    118. D(C   8,O  13,C   2,H  20)    122.2515         0.018382   
    119. D(C   8,O  13,C   2,C   1)      0.6625         0.018382   
    120. D(C   7,O  14,C   9,F  12)   -178.2426         0.046477   
    121. D(C   7,O  14,C   9,F  11)     62.1022         0.046477   
    122. D(C   7,O  14,C   9,F  10)    -58.4150         0.046477   
    123. D(C   9,O  14,C   7,C   4)    -83.9673         0.017545   
    124. D(C   9,O  14,C   7,C   3)     97.2665         0.017545   
    -----------------------------------------------------------------

Number of atoms                         .... 24
Number of degrees of freedom            .... 124

         *************************************************************
         *                GEOMETRY OPTIMIZATION CYCLE   1            *
         *************************************************************
---------------------------------
CARTESIAN COORDINATES (ANGSTROEM)
---------------------------------
  C      0.941500   -0.601300    0.462400
  C      5.058200   -3.053900   -0.191800
  C      3.753200   -3.862600   -0.043800
  C      3.105700    0.681700    0.190400
  C      5.231500   -0.443100   -0.145900
  C      2.418700   -0.524500    0.250000
  C      4.558300   -1.643300   -0.084700
  C      4.476200    0.712900   -0.008100
  C      3.179400   -1.681200    0.109100
  C      5.673000    2.405300    1.012100
  F      4.814200    2.522900    2.044900
  F      6.663300    1.614800    1.476600
  F      6.207300    3.607200    0.819400
  O      2.678100   -2.937900    0.142600
  O      5.119700    1.979700   -0.099100
  H      0.497500    0.389600    0.466300
  H      0.727100   -1.091000    1.411200
  H      0.483400   -1.199900   -0.322800
  H      5.544300   -3.236200   -1.150800
  H      5.772400   -3.284500    0.599800
  H      3.772700   -4.529000    0.823300
  H      3.530400   -4.456300   -0.935300
  H      2.570500    1.612300    0.295800
  H      6.298000   -0.394900   -0.294200

----------------------------
CARTESIAN COORDINATES (A.U.)
----------------------------
  NO LB      ZA    FRAG     MASS         X           Y           Z
   0 C     6.0000    0    12.011    1.779177   -1.136292    0.873809
   1 C     6.0000    0    12.011    9.558613   -5.771035   -0.362449
   2 C     6.0000    0    12.011    7.092520   -7.299256   -0.082770
   3 C     6.0000    0    12.011    5.868922    1.288226    0.359804
   4 C     6.0000    0    12.011    9.886102   -0.837338   -0.275711
   5 C     6.0000    0    12.011    4.570681   -0.991161    0.472432
   6 C     6.0000    0    12.011    8.613939   -3.105387   -0.160060
   7 C     6.0000    0    12.011    8.458792    1.347186   -0.015307
   8 C     6.0000    0    12.011    6.008195   -3.177008    0.206169
   9 C     6.0000    0    12.011   10.720416    4.545358    1.912592
  10 F     9.0000    0    18.998    9.097520    4.767590    3.864301
  11 F     9.0000    0    18.998   12.591812    3.051530    2.790370
  12 F     9.0000    0    18.998   11.730097    6.816620    1.548442
  13 O     8.0000    0    15.999    5.060876   -5.551826    0.269475
  14 O     8.0000    0    15.999    9.674831    3.741091   -0.187272
  15 H     1.0000    0     1.008    0.940139    0.736237    0.881179
  16 H     1.0000    0     1.008    1.374020   -2.061691    2.666782
  17 H     1.0000    0     1.008    0.913494   -2.267482   -0.610004
  18 H     1.0000    0     1.008   10.477209   -6.115532   -2.174697
  19 H     1.0000    0     1.008   10.908255   -6.206805    1.133458
  20 H     1.0000    0     1.008    7.129370   -8.558570    1.555812
  21 H     1.0000    0     1.008    6.671489   -8.421187   -1.767461
  22 H     1.0000    0     1.008    4.857541    3.046805    0.558981
  23 H     1.0000    0     1.008   11.901495   -0.746253   -0.555957

--------------------------------
INTERNAL COORDINATES (ANGSTROEM)
--------------------------------
 C      0   0   0     0.000000000000     0.00000000     0.00000000
 C      1   0   0     4.836366744779     0.00000000     0.00000000
 C      2   1   0     1.542376312707    62.14191615     0.00000000
 C      1   2   3     2.530579901920    60.96185731   180.62517205
 C      4   1   2     2.428435374886   121.91727823     0.06719374
 C      4   1   2     1.389402605439    29.81597124     0.36163690
 C      5   4   1     1.377470043231    88.25803910     0.00000000
 C      4   1   2     1.385151955563   150.80865639     0.37012535
 C      6   4   1     1.391571841480   116.55001996   180.38789237
 C      8   4   1     2.310271854133   117.76021719   213.39021071
 F     10   8   4     1.348348263617    94.13980960    29.04247194
 F     10   8   4     1.349572002525    95.91361818   134.37092475
 F     10   8   4     1.329350740023   143.75730644   263.06616548
 O      9   6   4     1.353410074589   124.53008376   179.93248093
 O     10   8   4     1.312265861021    33.90743892   260.27001002
 H      1   2   3     1.085833329752   144.22528885   188.41766274
 H      1   2   3     1.089033925091    93.29018636    58.65682189
 H      1   2   3     1.088446879733    88.95567008   311.32885926
 H      2   1   3     1.090507909187   125.67274368    98.11533594
 H      2   1   3     1.090820131827   124.49625377   261.40883173
 H      3   2   1     1.093769454684   112.36083493   241.13696621
 H      3   2   1     1.094025493304   112.25021606   118.38596381
 H      4   1   2     1.078686497552    90.14716268   180.17060804
 H      5   4   1     1.077839681956   149.82679270   180.27913185

---------------------------
INTERNAL COORDINATES (A.U.)
---------------------------
 C      0   0   0     0.000000000000     0.00000000     0.00000000
 C      1   0   0     9.139408630836     0.00000000     0.00000000
 C      2   1   0     2.914668826464    62.14191615     0.00000000
 C      1   2   3     4.782102974634    60.96185731   180.62517205
 C      4   1   2     4.589077792462   121.91727823     0.06719374
 C      4   1   2     2.625590414036    29.81597124     0.36163690
 C      5   4   1     2.603041139388    88.25803910     0.00000000
 C      4   1   2     2.617557849880   150.80865639     0.37012535
 C      6   4   1     2.629689676074   116.55001996   180.38789237
 C      8   4   1     4.365781099218   117.76021719   213.39021071
 F     10   8   4     2.548008951385    94.13980960    29.04247194
 F     10   8   4     2.550321482780    95.91361818   134.37092475
 F     10   8   4     2.512108834569   143.75730644   263.06616548
 O      9   6   4     2.557574387864   124.53008376   179.93248093
 O     10   8   4     2.479823092223    33.90743892   260.27001002
 H      1   2   3     2.051927620315   144.22528885   188.41766274
 H      1   2   3     2.057975868972    93.29018636    58.65682189
 H      1   2   3     2.056866514016    88.95567008   311.32885926
 H      2   1   3     2.060761295239   125.67274368    98.11533594
 H      2   1   3     2.061351310522   124.49625377   261.40883173
 H      3   2   1     2.066924723001   112.36083493   241.13696621
 H      3   2   1     2.067408565873   112.25021606   118.38596381
 H      4   1   2     2.038422064731    90.14716268   180.17060804
 H      5   4   1     2.036821815170   149.82679270   180.27913185

---------------------
BASIS SET INFORMATION
---------------------
There are 4 groups of distinct atoms

 Group   1 Type C   : 7s4p1d contracted to 3s2p1d pattern {511/31/1}
 Group   2 Type F   : 7s4p1d contracted to 3s2p1d pattern {511/31/1}
 Group   3 Type O   : 7s4p1d contracted to 3s2p1d pattern {511/31/1}
 Group   4 Type H   : 4s1p contracted to 2s1p pattern {31/1}

Atom   0C    basis set group =>   1
Atom   1C    basis set group =>   1
Atom   2C    basis set group =>   1
Atom   3C    basis set group =>   1
Atom   4C    basis set group =>   1
Atom   5C    basis set group =>   1
Atom   6C    basis set group =>   1
Atom   7C    basis set group =>   1
Atom   8C    basis set group =>   1
Atom   9C    basis set group =>   1
Atom  10F    basis set group =>   2
Atom  11F    basis set group =>   2
Atom  12F    basis set group =>   2
Atom  13O    basis set group =>   3
Atom  14O    basis set group =>   3
Atom  15H    basis set group =>   4
Atom  16H    basis set group =>   4
Atom  17H    basis set group =>   4
Atom  18H    basis set group =>   4
Atom  19H    basis set group =>   4
Atom  20H    basis set group =>   4
Atom  21H    basis set group =>   4
Atom  22H    basis set group =>   4
Atom  23H    basis set group =>   4
------------------------------------------------------------------------------
                           ORCA GTO INTEGRAL CALCULATION
------------------------------------------------------------------------------

                         BASIS SET STATISTICS AND STARTUP INFO

 # of primitive gaussian shells          ...  225
 # of primitive gaussian functions       ...  423
 # of contracted shells                  ...  117
 # of contracted basis functions         ...  255
 Highest angular momentum                ...    2
 Maximum contraction depth               ...    5
 Integral package used                   ... LIBINT
 Integral threshhold            Thresh   ...  2.500e-11
 Primitive cut-off              TCut     ...  2.500e-12


------------------------------ INTEGRAL EVALUATION ----------------------------


 * One electron integrals 
 Pre-screening matrix                    ... done
 Shell pair data                         ... done (   0.002 sec)

-------------------------------------------------------------------------------
                                 ORCA SCF
-------------------------------------------------------------------------------

------------
SCF SETTINGS
------------
Hamiltonian:
 Density Functional     Method          .... DFT(GTOs)
 Exchange Functional    Exchange        .... WB97X-D3
 Correlation Functional Correlation     .... WB97X-D3
 Gradients option       PostSCFGGA      .... off
 Hybrid DFT is turned on
   Fraction HF Exchange ScalHFX         ....  0.195728
   Scaling of DF-GGA-X  ScalDFX         ....  0.000000
   Scaling of DF-GGA-C  ScalDFC         ....  1.000000
   Scaling of DF-LDA-C  ScalLDAC        ....  1.000000
   Perturbative correction              ....  0.000000
   Density functional embedding theory  .... OFF
 Long-range corrected/Screened/Range-Separated Hybrid DFT is turned on
   Amount of maximum screened exact exchange              ....  0.804272
   Range separation parameter mu (erf(mu*r12)/r12)        ....  0.250000


General Settings:
 Integral files         IntName         .... 057941108
 Hartree-Fock type      HFTyp           .... RHF
 Total Charge           Charge          ....    0
 Multiplicity           Mult            ....    1
 Number of Electrons    NEL             ....  112
 Basis Dimension        Dim             ....  255
 Nuclear Repulsion      ENuc            ....   1043.6825446337 Eh

Convergence Acceleration:
 DIIS                   CNVDIIS         .... on
   Start iteration      DIISMaxIt       ....    12
   Startup error        DIISStart       ....  0.200000
   # of expansion vecs  DIISMaxEq       ....     5
   Bias factor          DIISBfac        ....   1.050
   Max. coefficient     DIISMaxC        ....  10.000
 Newton-Raphson         CNVNR           .... off
 SOSCF                  CNVSOSCF        .... on
   Start iteration      SOSCFMaxIt      ....   150
   Startup grad/error   SOSCFStart      ....  0.003300
 Level Shifting         CNVShift        .... on
   Level shift para.    LevelShift      ....    0.2500
   Turn off err/grad.   ShiftErr        ....    0.0010
 Zerner damping         CNVZerner       .... off
 Static damping         CNVDamp         .... on
   Fraction old density DampFac         ....    0.7000
   Max. Damping (<1)    DampMax         ....    0.9800
   Min. Damping (>=0)   DampMin         ....    0.0000
   Turn off err/grad.   DampErr         ....    0.1000
 Fernandez-Rico         CNVRico         .... off

SCF Procedure:
 Maximum # iterations   MaxIter         ....   125
 SCF integral mode      SCFMode         .... Direct
   Integral package                     .... LIBINT
 Reset frequency        DirectResetFreq ....    20
 Integral Threshold     Thresh          ....  2.500e-11 Eh
 Primitive CutOff       TCut            ....  2.500e-12 Eh

Convergence Tolerance:
 Convergence Check Mode ConvCheckMode   .... Total+1el-Energy
 Convergence forced     ConvForced      .... 0
 Energy Change          TolE            ....  1.000e-08 Eh
 1-El. energy change                    ....  1.000e-05 Eh
 Orbital Gradient       TolG            ....  1.000e-05
 Orbital Rotation angle TolX            ....  1.000e-05
 DIIS Error             TolErr          ....  5.000e-07


Diagonalization of the overlap matrix:
Smallest eigenvalue                        ... 1.851e-04
Time for diagonalization                   ...    0.010 sec
Threshold for overlap eigenvalues          ... 1.000e-08
Number of eigenvalues below threshold      ... 0
Time for construction of square roots      ...    0.004 sec
Total time needed                          ...    0.014 sec

-------------------
DFT GRID GENERATION
-------------------

General Integration Accuracy     IntAcc      ...  4.340
Radial Grid Type                 RadialGrid  ... Gauss-Chebyshev
Angular Grid (max. acc.)         AngularGrid ... Lebedev-110
Angular grid pruning method      GridPruning ... 3 (G Style)
Weight generation scheme         WeightScheme... Becke
Basis function cutoff            BFCut       ...    1.0000e-11
Integration weight cutoff        WCut        ...    1.0000e-14
Grids for H and He will be reduced by one unit

# of grid points (after initial pruning)     ...  32358 (   0.0 sec)
# of grid points (after weights+screening)   ...  29525 (   0.1 sec)
nearest neighbour list constructed           ...    0.0 sec
Grid point re-assignment to atoms done       ...    0.0 sec
Grid point division into batches done        ...    0.0 sec
Reduced shell lists constructed in    0.2 sec

Total number of grid points                  ...    29525
Total number of batches                      ...      472
Average number of points per batch           ...       62
Average number of grid points per atom       ...     1230
Average number of shells per batch           ...    66.70 (57.01%)
Average number of basis functions per batch  ...   140.61 (55.14%)
Average number of large shells per batch     ...    48.13 (72.15%)
Average number of large basis fcns per batch ...   101.13 (71.92%)
Maximum spatial batch extension              ...  21.10, 18.34, 25.60 au
Average spatial batch extension              ...   3.34,  3.42,  3.58 au

Time for grid setup =    0.358 sec

------------------------------
INITIAL GUESS: MODEL POTENTIAL
------------------------------
Loading Hartree-Fock densities                     ... done
Calculating cut-offs                               ... done
Setting up the integral package                    ... done
Initializing the effective Hamiltonian             ... done
Starting the Coulomb interaction                   ... done (   0.3 sec)
Reading the grid                                   ... done
Mapping shells                                     ... done
Starting the XC term evaluation                    ... done (   0.3 sec)
  promolecular density results
     # of electrons  =    111.997243718
     EX              =   -100.226986579
     EC              =     -3.832777038
     EX+EC           =   -104.059763617
Transforming the Hamiltonian                       ... done (   0.0 sec)
Diagonalizing the Hamiltonian                      ... done (   0.0 sec)
Back transforming the eigenvectors                 ... done (   0.0 sec)
Now organizing SCF variables                       ... done
                      ------------------
                      INITIAL GUESS DONE (   1.0 sec)
                      ------------------
--------------
SCF ITERATIONS
--------------
ITER       Energy         Delta-E        Max-DP      RMS-DP      [F,P]     Damp
               ***  Starting incremental Fock matrix formation  ***
  0   -835.3673108941   0.000000000000 0.08010415  0.00167139  0.1525193 0.7000
  1   -835.4736372651  -0.106326370940 0.04905644  0.00117856  0.0932462 0.7000
                               ***Turning on DIIS***
  2   -835.5271427508  -0.053505485770 0.07638496  0.00237565  0.0494539 0.0000
  3   -835.6164236531  -0.089280902256 0.04288244  0.00066358  0.0327725 0.0000
  4   -835.6283412407  -0.011917587642 0.00530993  0.00016258  0.0060485 0.0000
                      *** Initiating the SOSCF procedure ***
                           *** Shutting down DIIS ***
                      *** Re-Reading the Fockian *** 
                      *** Removing any level shift *** 
ITER      Energy       Delta-E        Grad      Rot      Max-DP    RMS-DP
  5   -835.62865501  -0.0003137676  0.000810  0.000810  0.002037  0.000060
               *** Restarting incremental Fock matrix formation ***
  6   -835.62869718  -0.0000421698  0.000433  0.001080  0.001047  0.000033
  7   -835.62870400  -0.0000068221  0.000227  0.000768  0.000629  0.000022
  8   -835.62870520  -0.0000011973  0.000082  0.000150  0.000216  0.000007
  9   -835.62870555  -0.0000003532  0.000018  0.000031  0.000075  0.000002
 10   -835.62870557  -0.0000000184  0.000014  0.000034  0.000040  0.000001
 11   -835.62870558  -0.0000000079  0.000004  0.000017  0.000017  0.000000
                  ***Gradient check signals convergence***
              ***Rediagonalizing the Fockian in SOSCF/NRSCF***

               *****************************************************
               *                     SUCCESS                       *
               *           SCF CONVERGED AFTER  12 CYCLES          *
               *****************************************************

Setting up the final grid:

General Integration Accuracy     IntAcc      ...  4.670
Radial Grid Type                 RadialGrid  ... Gauss-Chebyshev
Angular Grid (max. acc.)         AngularGrid ... Lebedev-302
Angular grid pruning method      GridPruning ... 3 (G Style)
Weight generation scheme         WeightScheme... Becke
Basis function cutoff            BFCut       ...    1.0000e-11
Integration weight cutoff        WCut        ...    1.0000e-14
Grids for H and He will be reduced by one unit

# of grid points (after initial pruning)     ... 123906 (   0.1 sec)
# of grid points (after weights+screening)   ... 110911 (   0.4 sec)
nearest neighbour list constructed           ...    0.0 sec
Grid point re-assignment to atoms done       ...    0.0 sec
Grid point division into batches done        ...    0.4 sec
Reduced shell lists constructed in    1.1 sec

Total number of grid points                  ...   110911
Total number of batches                      ...     1747
Average number of points per batch           ...       63
Average number of grid points per atom       ...     4621
Average number of shells per batch           ...    60.77 (51.94%)
Average number of basis functions per batch  ...   127.14 (49.86%)
Average number of large shells per batch     ...    42.92 (70.64%)
Average number of large basis fcns per batch ...    89.51 (70.41%)
Maximum spatial batch extension              ...  20.51, 16.93, 18.63 au
Average spatial batch extension              ...   2.28,  2.24,  2.33 au

Final grid set up in    1.6 sec
Final integration                            ... done (   1.7 sec)
Change in XC energy                          ...     0.001162786
Integrated number of electrons               ...   111.999945422
Previous integrated no of electrons          ...   112.000689558

----------------
TOTAL SCF ENERGY
----------------

Total Energy       :         -835.62754279 Eh          -22738.58145 eV

Components:
Nuclear Repulsion  :         1043.68254463 Eh           28400.04587 eV
Electronic Energy  :        -1879.31008742 Eh          -51138.62732 eV
One Electron Energy:        -3219.14087939 Eh          -87597.27669 eV
Two Electron Energy:         1339.83079196 Eh           36458.64937 eV

Virial components:
Potential Energy   :        -1664.52343792 Eh          -45293.98545 eV
Kinetic Energy     :          828.89589513 Eh           22555.40400 eV
Virial Ratio       :            2.00812122


DFT components:
N(Alpha)           :       55.999972710758 electrons
N(Beta)            :       55.999972710758 electrons
N(Total)           :      111.999945421516 electrons
E(XC)              :      -74.054171863255 Eh       
DFET-embed. en.    :        0.000000000000 Eh       

---------------
SCF CONVERGENCE
---------------

  Last Energy change         ...   -3.1901e-10  Tolerance :   1.0000e-08
  Last MAX-Density change    ...    6.1909e-06  Tolerance :   1.0000e-07
  Last RMS-Density change    ...    1.3206e-07  Tolerance :   5.0000e-09
  Last Orbital Gradient      ...    2.4195e-06  Tolerance :   1.0000e-05
  Last Orbital Rotation      ...    6.8721e-06  Tolerance :   1.0000e-05

             **** THE GBW FILE WAS UPDATED (057941108.gbw) ****
             **** DENSITY FILE WAS UPDATED (057941108.scfp) ****
             **** ENERGY FILE WAS UPDATED (057941108.en.tmp) ****
             **** THE GBW FILE WAS UPDATED (057941108.gbw) ****
             **** DENSITY FILE WAS UPDATED (057941108.scfp) ****
----------------
ORBITAL ENERGIES
----------------

  NO   OCC          E(Eh)            E(eV) 
   0   2.0000     -24.820265      -675.3937 
   1   2.0000     -24.816851      -675.3008 
   2   2.0000     -24.815718      -675.2700 
   3   2.0000     -19.308259      -525.4044 
   4   2.0000     -19.278653      -524.5988 
   5   2.0000     -10.579656      -287.8871 
   6   2.0000     -10.361947      -281.9629 
   7   2.0000     -10.356075      -281.8031 
   8   2.0000     -10.353096      -281.7221 
   9   2.0000     -10.312447      -280.6159 
  10   2.0000     -10.309036      -280.5231 
  11   2.0000     -10.307810      -280.4898 
  12   2.0000     -10.306642      -280.4580 
  13   2.0000     -10.304277      -280.3936 
  14   2.0000     -10.290217      -280.0110 
  15   2.0000      -1.428220       -38.8639 
  16   2.0000      -1.323430       -36.0124 
  17   2.0000      -1.315766       -35.8038 
  18   2.0000      -1.220099       -33.2006 
  19   2.0000      -1.194904       -32.5150 
  20   2.0000      -0.991470       -26.9793 
  21   2.0000      -0.929104       -25.2822 
  22   2.0000      -0.892474       -24.2855 
  23   2.0000      -0.866223       -23.5711 
  24   2.0000      -0.813467       -22.1356 
  25   2.0000      -0.805731       -21.9251 
  26   2.0000      -0.758570       -20.6417 
  27   2.0000      -0.735840       -20.0232 
  28   2.0000      -0.714326       -19.4378 
  29   2.0000      -0.706853       -19.2344 
  30   2.0000      -0.704646       -19.1744 
  31   2.0000      -0.672441       -18.2981 
  32   2.0000      -0.633486       -17.2380 
  33   2.0000      -0.614126       -16.7112 
  34   2.0000      -0.613611       -16.6972 
  35   2.0000      -0.587977       -15.9997 
  36   2.0000      -0.569582       -15.4991 
  37   2.0000      -0.567627       -15.4459 
  38   2.0000      -0.548965       -14.9381 
  39   2.0000      -0.546899       -14.8819 
  40   2.0000      -0.534498       -14.5444 
  41   2.0000      -0.532688       -14.4952 
  42   2.0000      -0.526805       -14.3351 
  43   2.0000      -0.517043       -14.0695 
  44   2.0000      -0.511964       -13.9312 
  45   2.0000      -0.508349       -13.8329 
  46   2.0000      -0.504617       -13.7313 
  47   2.0000      -0.499355       -13.5881 
  48   2.0000      -0.482556       -13.1310 
  49   2.0000      -0.478323       -13.0158 
  50   2.0000      -0.466174       -12.6852 
  51   2.0000      -0.454560       -12.3692 
  52   2.0000      -0.430428       -11.7125 
  53   2.0000      -0.423763       -11.5312 
  54   2.0000      -0.346031        -9.4160 
  55   2.0000      -0.308127        -8.3846 
  56   0.0000       0.054732         1.4893 
  57   0.0000       0.072068         1.9611 
  58   0.0000       0.138024         3.7558 
  59   0.0000       0.157352         4.2818 
  60   0.0000       0.168178         4.5763 
  61   0.0000       0.170074         4.6279 
  62   0.0000       0.188198         5.1211 
  63   0.0000       0.195642         5.3237 
  64   0.0000       0.211805         5.7635 
  65   0.0000       0.222941         6.0665 
  66   0.0000       0.237189         6.4542 
  67   0.0000       0.245753         6.6873 
  68   0.0000       0.252259         6.8643 
  69   0.0000       0.261134         7.1058 
  70   0.0000       0.276897         7.5347 
  71   0.0000       0.280831         7.6418 
  72   0.0000       0.285316         7.7638 
  73   0.0000       0.305861         8.3229 
  74   0.0000       0.327956         8.9241 
  75   0.0000       0.336739         9.1631 
  76   0.0000       0.350538         9.5386 
  77   0.0000       0.386279        10.5112 
  78   0.0000       0.404970        11.0198 
  79   0.0000       0.410897        11.1811 
  80   0.0000       0.420742        11.4490 
  81   0.0000       0.436001        11.8642 
  82   0.0000       0.441522        12.0144 
  83   0.0000       0.453266        12.3340 
  84   0.0000       0.474290        12.9061 
  85   0.0000       0.489074        13.3084 
  86   0.0000       0.501149        13.6370 
  87   0.0000       0.506444        13.7811 
  88   0.0000       0.526462        14.3258 
  89   0.0000       0.533066        14.5055 
  90   0.0000       0.548847        14.9349 
  91   0.0000       0.556144        15.1335 
  92   0.0000       0.584228        15.8976 
  93   0.0000       0.587260        15.9802 
  94   0.0000       0.593741        16.1565 
  95   0.0000       0.603964        16.4347 
  96   0.0000       0.624400        16.9908 
  97   0.0000       0.625356        17.0168 
  98   0.0000       0.658870        17.9288 
  99   0.0000       0.662076        18.0160 
 100   0.0000       0.681878        18.5548 
 101   0.0000       0.693650        18.8752 
 102   0.0000       0.705409        19.1952 
 103   0.0000       0.723760        19.6945 
 104   0.0000       0.732826        19.9412 
 105   0.0000       0.733117        19.9491 
 106   0.0000       0.739149        20.1133 
 107   0.0000       0.745390        20.2831 
 108   0.0000       0.752138        20.4667 
 109   0.0000       0.758296        20.6343 
 110   0.0000       0.768220        20.9043 
 111   0.0000       0.773121        21.0377 
 112   0.0000       0.783343        21.3158 
 113   0.0000       0.797984        21.7143 
 114   0.0000       0.803003        21.8508 
 115   0.0000       0.816234        22.2109 
 116   0.0000       0.822144        22.3717 
 117   0.0000       0.837404        22.7869 
 118   0.0000       0.850821        23.1520 
 119   0.0000       0.868855        23.6427 
 120   0.0000       0.899581        24.4788 
 121   0.0000       0.909795        24.7568 
 122   0.0000       0.920585        25.0504 
 123   0.0000       0.943267        25.6676 
 124   0.0000       0.967814        26.3356 
 125   0.0000       1.039824        28.2951 
 126   0.0000       1.059384        28.8273 
 127   0.0000       1.107335        30.1321 
 128   0.0000       1.115301        30.3489 
 129   0.0000       1.136162        30.9165 
 130   0.0000       1.168706        31.8021 
 131   0.0000       1.184445        32.2304 
 132   0.0000       1.200790        32.6752 
 133   0.0000       1.210398        32.9366 
 134   0.0000       1.221648        33.2427 
 135   0.0000       1.226793        33.3827 
 136   0.0000       1.253307        34.1042 
 137   0.0000       1.267908        34.5015 
 138   0.0000       1.281039        34.8589 
 139   0.0000       1.308340        35.6017 
 140   0.0000       1.339577        36.4517 
 141   0.0000       1.359485        36.9935 
 142   0.0000       1.378641        37.5147 
 143   0.0000       1.393105        37.9083 
 144   0.0000       1.412109        38.4254 
 145   0.0000       1.421843        38.6903 
 146   0.0000       1.424844        38.7720 
 147   0.0000       1.458853        39.6974 
 148   0.0000       1.482482        40.3404 
 149   0.0000       1.523976        41.4695 
 150   0.0000       1.539687        41.8970 
 151   0.0000       1.547721        42.1156 
 152   0.0000       1.551964        42.2311 
 153   0.0000       1.583393        43.0863 
 154   0.0000       1.599815        43.5332 
 155   0.0000       1.613071        43.8939 
 156   0.0000       1.634904        44.4880 
 157   0.0000       1.639293        44.6074 
 158   0.0000       1.645145        44.7667 
 159   0.0000       1.649833        44.8942 
 160   0.0000       1.677071        45.6354 
 161   0.0000       1.704671        46.3864 
 162   0.0000       1.719769        46.7973 
 163   0.0000       1.767411        48.0937 
 164   0.0000       1.778498        48.3954 
 165   0.0000       1.787616        48.6435 
 166   0.0000       1.799085        48.9556 
 167   0.0000       1.827697        49.7342 
 168   0.0000       1.834257        49.9127 
 169   0.0000       1.840407        50.0800 
 170   0.0000       1.862884        50.6916 
 171   0.0000       1.867175        50.8084 
 172   0.0000       1.876991        51.0755 
 173   0.0000       1.888647        51.3927 
 174   0.0000       1.904106        51.8134 
 175   0.0000       1.915181        52.1147 
 176   0.0000       1.920346        52.2553 
 177   0.0000       1.934366        52.6368 
 178   0.0000       1.936635        52.6985 
 179   0.0000       1.953443        53.1559 
 180   0.0000       1.974158        53.7196 
 181   0.0000       1.993427        54.2439 
 182   0.0000       2.010088        54.6973 
 183   0.0000       2.012666        54.7674 
 184   0.0000       2.034878        55.3718 
 185   0.0000       2.044125        55.6235 
 186   0.0000       2.058542        56.0158 
 187   0.0000       2.066887        56.2428 
 188   0.0000       2.074242        56.4430 
 189   0.0000       2.081391        56.6375 
 190   0.0000       2.095117        57.0110 
 191   0.0000       2.142257        58.2938 
 192   0.0000       2.149150        58.4813 
 193   0.0000       2.165174        58.9174 
 194   0.0000       2.205656        60.0189 
 195   0.0000       2.222443        60.4758 
 196   0.0000       2.241148        60.9847 
 197   0.0000       2.254842        61.3574 
 198   0.0000       2.274892        61.9029 
 199   0.0000       2.340403        63.6856 
 200   0.0000       2.343060        63.7579 
 201   0.0000       2.352685        64.0198 
 202   0.0000       2.376809        64.6763 
 203   0.0000       2.380852        64.7863 
 204   0.0000       2.393015        65.1172 
 205   0.0000       2.447291        66.5942 
 206   0.0000       2.456752        66.8516 
 207   0.0000       2.472155        67.2708 
 208   0.0000       2.502883        68.1069 
 209   0.0000       2.580936        70.2308 
 210   0.0000       2.612761        71.0968 
 211   0.0000       2.625911        71.4547 
 212   0.0000       2.645620        71.9910 
 213   0.0000       2.658396        72.3386 
 214   0.0000       2.697868        73.4127 
 215   0.0000       2.724860        74.1472 
 216   0.0000       2.749759        74.8247 
 217   0.0000       2.793219        76.0074 
 218   0.0000       2.831192        77.0406 
 219   0.0000       2.875954        78.2587 
 220   0.0000       2.897315        78.8400 
 221   0.0000       2.912145        79.2435 
 222   0.0000       2.943332        80.0921 
 223   0.0000       2.959371        80.5286 
 224   0.0000       2.974024        80.9273 
 225   0.0000       2.998271        81.5871 
 226   0.0000       3.026322        82.3504 
 227   0.0000       3.029952        82.4492 
 228   0.0000       3.065772        83.4239 
 229   0.0000       3.094533        84.2065 
 230   0.0000       3.108837        84.5957 
 231   0.0000       3.114742        84.7565 
 232   0.0000       3.141093        85.4735 
 233   0.0000       3.141716        85.4904 
 234   0.0000       3.149078        85.6908 
 235   0.0000       3.150722        85.7355 
 236   0.0000       3.157694        85.9252 
 237   0.0000       3.163535        86.0842 
 238   0.0000       3.174029        86.3697 
 239   0.0000       3.210507        87.3623 
 240   0.0000       3.217365        87.5490 
 241   0.0000       3.233707        87.9936 
 242   0.0000       3.300822        89.8199 
 243   0.0000       3.342142        90.9443 
 244   0.0000       3.360387        91.4408 
 245   0.0000       3.415202        92.9324 
 246   0.0000       3.498143        95.1893 
 247   0.0000       3.571668        97.1900 
 248   0.0000       3.627053        98.6971 
 249   0.0000       3.660309        99.6021 
 250   0.0000       3.716292       101.1254 
 251   0.0000       3.791859       103.1817 
 252   0.0000       3.844003       104.6007 
 253   0.0000       3.957535       107.6900 
 254   0.0000       3.987836       108.5145 

                    ********************************
                    * MULLIKEN POPULATION ANALYSIS *
                    ********************************

-----------------------
MULLIKEN ATOMIC CHARGES
-----------------------
   0 C :    0.078419
   1 C :    0.031588
   2 C :    0.210215
   3 C :   -0.020103
   4 C :   -0.042286
   5 C :   -0.175632
   6 C :   -0.155295
   7 C :    0.141355
   8 C :    0.181420
   9 C :    0.575816
  10 F :   -0.190027
  11 F :   -0.191218
  12 F :   -0.159222
  13 O :   -0.343660
  14 O :   -0.287408
  15 H :    0.026594
  16 H :    0.054618
  17 H :    0.052276
  18 H :    0.054274
  19 H :    0.056871
  20 H :    0.045757
  21 H :    0.046094
  22 H :    0.003870
  23 H :    0.005681
Sum of atomic charges:    0.0000000

--------------------------------
MULLIKEN REDUCED ORBITAL CHARGES
--------------------------------
  0 C s       :     2.922895  s :     2.922895
      pz      :     1.034970  p :     2.970899
      px      :     0.931667
      py      :     1.004263
      dz2     :     0.005545  d :     0.027787
      dxz     :     0.005130
      dyz     :     0.005170
      dx2y2   :     0.006730
      dxy     :     0.005210
  1 C s       :     2.934324  s :     2.934324
      pz      :     1.044316  p :     3.000408
      px      :     1.038478
      py      :     0.917614
      dz2     :     0.005836  d :     0.033680
      dxz     :     0.008846
      dyz     :     0.004691
      dx2y2   :     0.006250
      dxy     :     0.008057
  2 C s       :     2.984401  s :     2.984401
      pz      :     1.048996  p :     2.746551
      px      :     0.801540
      py      :     0.896014
      dz2     :     0.008580  d :     0.058834
      dxz     :     0.007509
      dyz     :     0.013912
      dx2y2   :     0.010741
      dxy     :     0.018092
  3 C s       :     3.293699  s :     3.293699
      pz      :     0.991818  p :     2.692057
      px      :     0.867477
      py      :     0.832762
      dz2     :     0.002893  d :     0.034347
      dxz     :     0.006700
      dyz     :     0.004183
      dx2y2   :     0.011255
      dxy     :     0.009316
  4 C s       :     3.320990  s :     3.320990
      pz      :     0.987080  p :     2.686484
      px      :     0.793610
      py      :     0.905794
      dz2     :     0.002758  d :     0.034811
      dxz     :     0.003128
      dyz     :     0.008176
      dx2y2   :     0.010266
      dxy     :     0.010483
  5 C s       :     3.073405  s :     3.073405
      pz      :     1.025867  p :     3.058561
      px      :     1.042226
      py      :     0.990468
      dz2     :     0.003404  d :     0.043665
      dxz     :     0.007344
      dyz     :     0.006639
      dx2y2   :     0.011492
      dxy     :     0.014786
  6 C s       :     3.087211  s :     3.087211
      pz      :     1.056073  p :     3.024912
      px      :     1.012451
      py      :     0.956387
      dz2     :     0.003469  d :     0.043173
      dxz     :     0.006521
      dyz     :     0.007236
      dx2y2   :     0.015600
      dxy     :     0.010347
  7 C s       :     2.959252  s :     2.959252
      pz      :     1.093908  p :     2.831218
      px      :     0.966987
      py      :     0.770323
      dz2     :     0.005384  d :     0.068174
      dxz     :     0.008602
      dyz     :     0.009511
      dx2y2   :     0.021550
      dxy     :     0.023127
  8 C s       :     3.035101  s :     3.035101
      pz      :     0.970985  p :     2.706085
      px      :     0.936831
      py      :     0.798269
      dz2     :     0.005789  d :     0.077393
      dxz     :     0.008318
      dyz     :     0.017621
      dx2y2   :     0.023758
      dxy     :     0.021907
  9 C s       :     2.892484  s :     2.892484
      pz      :     0.801912  p :     2.298707
      px      :     0.755117
      py      :     0.741678
      dz2     :     0.046130  d :     0.232993
      dxz     :     0.056598
      dyz     :     0.040988
      dx2y2   :     0.040746
      dxy     :     0.048532
 10 F s       :     3.894567  s :     3.894567
      pz      :     1.647683  p :     5.287410
      px      :     1.736283
      py      :     1.903443
      dz2     :     0.001880  d :     0.008050
      dxz     :     0.003457
      dyz     :     0.001031
      dx2y2   :     0.000955
      dxy     :     0.000727
 11 F s       :     3.895103  s :     3.895103
      pz      :     1.858200  p :     5.288150
      px      :     1.670658
      py      :     1.759292
      dz2     :     0.001017  d :     0.007965
      dxz     :     0.001605
      dyz     :     0.001057
      dx2y2   :     0.001484
      dxy     :     0.002801
 12 F s       :     3.884352  s :     3.884352
      pz      :     1.900607  p :     5.266368
      px      :     1.831567
      py      :     1.534194
      dz2     :     0.001250  d :     0.008501
      dxz     :     0.000389
      dyz     :     0.001530
      dx2y2   :     0.002570
      dxy     :     0.002763
 13 O s       :     3.743526  s :     3.743526
      pz      :     1.802733  p :     4.582450
      px      :     1.559922
      py      :     1.219796
      dz2     :     0.002282  d :     0.017683
      dxz     :     0.002129
      dyz     :     0.002699
      dx2y2   :     0.003987
      dxy     :     0.006587
 14 O s       :     3.706035  s :     3.706035
      pz      :     1.465837  p :     4.563582
      px      :     1.653399
      py      :     1.444346
      dz2     :     0.005404  d :     0.017791
      dxz     :     0.004000
      dyz     :     0.004011
      dx2y2   :     0.002331
      dxy     :     0.002045
 15 H s       :     0.949745  s :     0.949745
      pz      :     0.005058  p :     0.023661
      px      :     0.005697
      py      :     0.012905
 16 H s       :     0.921032  s :     0.921032
      pz      :     0.012527  p :     0.024350
      px      :     0.004659
      py      :     0.007164
 17 H s       :     0.923457  s :     0.923457
      pz      :     0.010194  p :     0.024267
      px      :     0.005959
      py      :     0.008115
 18 H s       :     0.922905  s :     0.922905
      pz      :     0.012559  p :     0.022821
      px      :     0.006000
      py      :     0.004261
 19 H s       :     0.920333  s :     0.920333
      pz      :     0.010120  p :     0.022795
      px      :     0.008314
      py      :     0.004362
 20 H s       :     0.932617  s :     0.932617
      pz      :     0.011256  p :     0.021626
      px      :     0.003002
      py      :     0.007368
 21 H s       :     0.932658  s :     0.932658
      pz      :     0.011565  p :     0.021248
      px      :     0.003318
      py      :     0.006366
 22 H s       :     0.972539  s :     0.972539
      pz      :     0.004866  p :     0.023591
      px      :     0.006315
      py      :     0.012411
 23 H s       :     0.970429  s :     0.970429
      pz      :     0.005016  p :     0.023890
      px      :     0.015482
      py      :     0.003391


                     *******************************
                     * LOEWDIN POPULATION ANALYSIS *
                     *******************************

----------------------
LOEWDIN ATOMIC CHARGES
----------------------
   0 C :   -0.043610
   1 C :   -0.037138
   2 C :    0.101757
   3 C :   -0.026582
   4 C :   -0.030878
   5 C :   -0.052784
   6 C :   -0.059315
   7 C :    0.030373
   8 C :    0.052319
   9 C :    0.142168
  10 F :   -0.078434
  11 F :   -0.080160
  12 F :   -0.049866
  13 O :   -0.116071
  14 O :   -0.072433
  15 H :    0.032122
  16 H :    0.042144
  17 H :    0.040922
  18 H :    0.039537
  19 H :    0.040451
  20 H :    0.023708
  21 H :    0.023960
  22 H :    0.038899
  23 H :    0.038910

-------------------------------
LOEWDIN REDUCED ORBITAL CHARGES
-------------------------------
  0 C s       :     2.817706  s :     2.817706
      pz      :     1.075300  p :     3.152137
      px      :     1.009688
      py      :     1.067148
      dz2     :     0.014878  d :     0.073767
      dxz     :     0.012669
      dyz     :     0.013400
      dx2y2   :     0.019006
      dxy     :     0.013815
  1 C s       :     2.829600  s :     2.829600
      pz      :     1.078690  p :     3.120895
      px      :     1.033016
      py      :     1.009189
      dz2     :     0.015075  d :     0.086643
      dxz     :     0.022806
      dyz     :     0.009862
      dx2y2   :     0.016718
      dxy     :     0.022182
  2 C s       :     2.847064  s :     2.847064
      pz      :     1.085740  p :     2.919045
      px      :     0.893769
      py      :     0.939537
      dz2     :     0.019313  d :     0.132133
      dxz     :     0.013708
      dyz     :     0.035687
      dx2y2   :     0.022000
      dxy     :     0.041426
  3 C s       :     2.852012  s :     2.852012
      pz      :     0.988243  p :     3.082854
      px      :     1.045429
      py      :     1.049182
      dz2     :     0.006919  d :     0.091716
      dxz     :     0.014473
      dyz     :     0.008301
      dx2y2   :     0.033281
      dxy     :     0.028742
  4 C s       :     2.850237  s :     2.850237
      pz      :     0.988369  p :     3.087399
      px      :     1.045894
      py      :     1.053136
      dz2     :     0.006699  d :     0.093243
      dxz     :     0.005588
      dyz     :     0.017891
      dx2y2   :     0.031394
      dxy     :     0.031671
  5 C s       :     2.841420  s :     2.841420
      pz      :     0.990847  p :     3.102698
      px      :     1.045233
      py      :     1.066618
      dz2     :     0.007867  d :     0.108666
      dxz     :     0.012957
      dyz     :     0.013951
      dx2y2   :     0.033480
      dxy     :     0.040412
  6 C s       :     2.840631  s :     2.840631
      pz      :     1.012035  p :     3.108329
      px      :     1.056429
      py      :     1.039865
      dz2     :     0.008006  d :     0.110355
      dxz     :     0.013210
      dyz     :     0.013960
      dx2y2   :     0.045403
      dxy     :     0.029775
  7 C s       :     2.839615  s :     2.839615
      pz      :     1.057467  p :     2.973153
      px      :     1.046167
      py      :     0.869519
      dz2     :     0.011518  d :     0.156859
      dxz     :     0.017195
      dyz     :     0.018073
      dx2y2   :     0.054070
      dxy     :     0.056002
  8 C s       :     2.831454  s :     2.831454
      pz      :     0.970459  p :     2.936989
      px      :     1.046213
      py      :     0.920316
      dz2     :     0.012326  d :     0.179238
      dxz     :     0.017186
      dyz     :     0.034723
      dx2y2   :     0.060934
      dxy     :     0.054069
  9 C s       :     2.808463  s :     2.808463
      pz      :     0.893914  p :     2.575345
      px      :     0.845207
      py      :     0.836224
      dz2     :     0.094967  d :     0.474024
      dxz     :     0.121557
      dyz     :     0.078911
      dx2y2   :     0.078310
      dxy     :     0.100279
 10 F s       :     3.738597  s :     3.738597
      pz      :     1.676543  p :     5.327092
      px      :     1.753827
      py      :     1.896722
      dz2     :     0.002793  d :     0.012745
      dxz     :     0.006215
      dyz     :     0.001274
      dx2y2   :     0.001512
      dxy     :     0.000951
 11 F s       :     3.739038  s :     3.739038
      pz      :     1.860259  p :     5.328495
      px      :     1.694496
      py      :     1.773741
      dz2     :     0.001524  d :     0.012627
      dxz     :     0.002554
      dyz     :     0.001640
      dx2y2   :     0.001943
      dxy     :     0.004967
 12 F s       :     3.725221  s :     3.725221
      pz      :     1.896016  p :     5.311240
      px      :     1.834139
      py      :     1.581085
      dz2     :     0.002172  d :     0.013404
      dxz     :     0.000539
      dyz     :     0.002080
      dx2y2   :     0.004083
      dxy     :     0.004530
 13 O s       :     3.442140  s :     3.442140
      pz      :     1.785802  p :     4.642036
      px      :     1.589871
      py      :     1.266364
      dz2     :     0.003665  d :     0.031895
      dxz     :     0.002565
      dyz     :     0.004673
      dx2y2   :     0.007744
      dxy     :     0.013248
 14 O s       :     3.421539  s :     3.421539
      pz      :     1.522147  p :     4.617723
      px      :     1.638595
      py      :     1.456981
      dz2     :     0.009658  d :     0.033170
      dxz     :     0.007435
      dyz     :     0.007335
      dx2y2   :     0.004408
      dxy     :     0.004335
 15 H s       :     0.901232  s :     0.901232
      pz      :     0.013320  p :     0.066645
      px      :     0.017367
      py      :     0.035959
 16 H s       :     0.890706  s :     0.890706
      pz      :     0.034417  p :     0.067149
      px      :     0.014038
      py      :     0.018695
 17 H s       :     0.891840  s :     0.891840
      pz      :     0.027862  p :     0.067239
      px      :     0.017734
      py      :     0.021643
 18 H s       :     0.892169  s :     0.892169
      pz      :     0.035467  p :     0.068294
      px      :     0.018611
      py      :     0.014216
 19 H s       :     0.891238  s :     0.891238
      pz      :     0.028549  p :     0.068311
      px      :     0.025160
      py      :     0.014602
 20 H s       :     0.910903  s :     0.910903
      pz      :     0.032279  p :     0.065389
      px      :     0.010021
      py      :     0.023090
 21 H s       :     0.910803  s :     0.910803
      pz      :     0.033673  p :     0.065238
      px      :     0.010971
      py      :     0.020594
 22 H s       :     0.890876  s :     0.890876
      pz      :     0.015334  p :     0.070225
      px      :     0.019144
      py      :     0.035747
 23 H s       :     0.890313  s :     0.890313
      pz      :     0.015444  p :     0.070777
      px      :     0.044070
      py      :     0.011264


                      *****************************
                      * MAYER POPULATION ANALYSIS *
                      *****************************

  NA   - Mulliken gross atomic population
  ZA   - Total nuclear charge
  QA   - Mulliken gross atomic charge
  VA   - Mayer's total valence
  BVA  - Mayer's bonded valence
  FA   - Mayer's free valence

  ATOM       NA         ZA         QA         VA         BVA        FA
  0 C      5.9216     6.0000     0.0784     3.9085     3.9085    -0.0000
  1 C      5.9684     6.0000     0.0316     3.9726     3.9726     0.0000
  2 C      5.7898     6.0000     0.2102     3.9628     3.9628     0.0000
  3 C      6.0201     6.0000    -0.0201     3.9171     3.9171    -0.0000
  4 C      6.0423     6.0000    -0.0423     3.8948     3.8948    -0.0000
  5 C      6.1756     6.0000    -0.1756     3.9871     3.9871    -0.0000
  6 C      6.1553     6.0000    -0.1553     3.9224     3.9224     0.0000
  7 C      5.8586     6.0000     0.1414     3.8145     3.8145     0.0000
  8 C      5.8186     6.0000     0.1814     4.0374     4.0374    -0.0000
  9 C      5.4242     6.0000     0.5758     4.6144     4.6144    -0.0000
 10 F      9.1900     9.0000    -0.1900     1.1561     1.1561     0.0000
 11 F      9.1912     9.0000    -0.1912     1.1569     1.1569    -0.0000
 12 F      9.1592     9.0000    -0.1592     1.1792     1.1792     0.0000
 13 O      8.3437     8.0000    -0.3437     2.1760     2.1760     0.0000
 14 O      8.2874     8.0000    -0.2874     2.1245     2.1245    -0.0000
 15 H      0.9734     1.0000     0.0266     1.0002     1.0002    -0.0000
 16 H      0.9454     1.0000     0.0546     0.9921     0.9921     0.0000
 17 H      0.9477     1.0000     0.0523     0.9937     0.9937    -0.0000
 18 H      0.9457     1.0000     0.0543     0.9828     0.9828     0.0000
 19 H      0.9431     1.0000     0.0569     0.9824     0.9824    -0.0000
 20 H      0.9542     1.0000     0.0458     0.9819     0.9819     0.0000
 21 H      0.9539     1.0000     0.0461     0.9815     0.9815     0.0000
 22 H      0.9961     1.0000     0.0039     1.0104     1.0104     0.0000
 23 H      0.9943     1.0000     0.0057     1.0105     1.0105     0.0000

  Mayer bond orders larger than 0.100000
B(  0-C ,  5-C ) :   1.0322 B(  0-C , 15-H ) :   0.9576 B(  0-C , 16-H ) :   0.9595 
B(  0-C , 17-H ) :   0.9602 B(  1-C ,  2-C ) :   1.0932 B(  1-C ,  6-C ) :   1.0193 
B(  1-C , 18-H ) :   0.9281 B(  1-C , 19-H ) :   0.9273 B(  2-C , 13-O ) :   0.9331 
B(  2-C , 20-H ) :   0.9606 B(  2-C , 21-H ) :   0.9598 B(  3-C ,  5-C ) :   1.3771 
B(  3-C ,  7-C ) :   1.4006 B(  3-C , 22-H ) :   1.0016 B(  4-C ,  6-C ) :   1.3812 
B(  4-C ,  7-C ) :   1.3781 B(  4-C , 23-H ) :   1.0122 B(  5-C ,  8-C ) :   1.4192 
B(  6-C ,  8-C ) :   1.3648 B(  7-C , 14-O ) :   0.8681 B(  8-C , 13-O ) :   1.1380 
B(  9-C , 10-F ) :   1.1126 B(  9-C , 11-F ) :   1.1127 B(  9-C , 12-F ) :   1.1561 
B(  9-C , 14-O ) :   1.2005 

-------
TIMINGS
-------

Total SCF time: 0 days 0 hours 3 min 21 sec 

Total time                  ....     201.938 sec
Sum of individual times     ....     201.712 sec  ( 99.9%)

Fock matrix formation       ....     198.912 sec  ( 98.5%)
  XC integration            ....       7.750 sec  (  3.9% of F)
    Basis function eval.    ....       2.211 sec  ( 28.5% of XC)
    Density eval.           ....       1.459 sec  ( 18.8% of XC)
    XC-Functional eval.     ....       1.845 sec  ( 23.8% of XC)
    XC-Potential eval.      ....       2.023 sec  ( 26.1% of XC)
Diagonalization             ....       0.056 sec  (  0.0%)
Density matrix formation    ....       0.017 sec  (  0.0%)
Population analysis         ....       0.008 sec  (  0.0%)
Initial guess               ....       0.687 sec  (  0.3%)
Orbital Transformation      ....       0.000 sec  (  0.0%)
Orbital Orthonormalization  ....       0.000 sec  (  0.0%)
DIIS solution               ....       0.019 sec  (  0.0%)
SOSCF solution              ....       0.043 sec  (  0.0%)
Grid generation             ....       1.970 sec  (  1.0%)


-------------------------------------------------------------------------------
                          DFT DISPERSION CORRECTION                            
                                                                               
                              DFTD3 V3.1  Rev 1                                
                              USING zero damping                               
-------------------------------------------------------------------------------
The omegaB97X-D3 functional is recognized. Fit by Chai et al.
Active option DFTDOPT                   ...         3   

molecular C6(AA) [au] = 5849.731427 


            DFT-D V3
 parameters
 s6 scaling factor         :     1.0000 
 rs6 scaling factor        :     1.2810 
 s8 scaling factor         :     1.0000 
 rs8 scaling factor        :     1.0940 
 Damping factor alpha6     :    14.0000 
 Damping factor alpha8     :    16.0000 
 ad hoc parameters k1-k3   :    16.0000     1.3333    -4.0000 

 Edisp/kcal,au: -5.499468886327  -0.008763960589 
 E6   /kcal   :  -2.384203797 
 E8   /kcal   :  -3.115265090 
 % E8         :  56.646653599 

-------------------------   ----------------
Dispersion correction           -0.008763961
-------------------------   ----------------


-------------------------   --------------------
FINAL SINGLE POINT ENERGY      -835.636306751722
-------------------------   --------------------

------------------------------------------------------------------------------
                         ORCA SCF GRADIENT CALCULATION
------------------------------------------------------------------------------

Gradient of the Kohn-Sham DFT energy:
Kohn-Sham wavefunction type      ... RKS
Hartree-Fock exchange scaling    ...    0.196
Number of operators              ...    1
Number of atoms                  ...   24
Basis set dimensions             ...  255
Integral neglect threshold       ... 2.5e-11
Integral primitive cutoff        ... 2.5e-12

Nuclear repulsion gradient       ... done
One Electron Gradient            ... done
Pre-screening matrix             ... done
Starting the two electron gradient:
Two electron gradient done
Exchange-correlation gradient    ... done
Dispersion correction            ... done

------------------
CARTESIAN GRADIENT
------------------

   1   C   :   -0.006189002    0.001312112    0.000779126
   2   C   :    0.006127417   -0.000645578   -0.001011449
   3   C   :    0.000097929   -0.000438685    0.000180233
   4   C   :   -0.005236798    0.000404357    0.001736278
   5   C   :    0.003218585   -0.004063728    0.000487588
   6   C   :    0.004086608    0.004135014   -0.000540761
   7   C   :    0.003811004    0.005131474   -0.000705634
   8   C   :   -0.007130422   -0.013167643    0.002651205
   9   C   :   -0.004668215    0.002061918    0.000732874
  10   C   :   -0.017959848   -0.017021730   -0.036076601
  11   F   :    0.002771341    0.002458434    0.008056634
  12   F   :    0.003389959    0.002318935    0.007304567
  13   F   :    0.003404579    0.002830810    0.006768389
  14   O   :    0.000949055   -0.006327478   -0.000407812
  15   O   :    0.013210232    0.020252233    0.009814559
  16   H   :    0.004617913   -0.006795378   -0.000198120
  17   H   :    0.003372143    0.003358801   -0.006834551
  18   H   :    0.005183956    0.003885298    0.005230616
  19   H   :   -0.003744138    0.001651275    0.005480040
  20   H   :   -0.004960540    0.002003917   -0.004126502
  21   H   :   -0.000116073    0.003441150   -0.002923634
  22   H   :    0.000685860    0.003273835    0.003032626
  23   H   :    0.004339360   -0.008550964   -0.000864772
  24   H   :   -0.009260904   -0.001508380    0.001435102

Difference to translation invariance:
           :   -0.0000000000    0.0000000000    0.0000000000

Norm of the cartesian gradient     ...    0.0619941799
RMS gradient                       ...    0.0073060842
MAX gradient                       ...    0.0360766014

-------
TIMINGS
-------

Total SCF gradient time            ...       78.862 sec

One electron gradient       ....       0.275 sec  (  0.3%)
Prescreening matrices       ....       0.142 sec  (  0.2%)
Two electron gradient       ....      71.833 sec  ( 91.1%)
XC gradient                 ....       6.460 sec  (  8.2%)
------------------------------------------------------------------------------
                         ORCA GEOMETRY RELAXATION STEP
------------------------------------------------------------------------------

Reading the OPT-File                    .... done
Getting information on internals        .... done
Copying old internal coords+grads       .... done
Making the new internal coordinates     .... (new redundants).... done
Validating the new internal coordinates .... (new redundants).... done
Calculating the B-matrix                .... done
Calculating the G,G- and P matrices     .... done
Transforming gradient to internals      .... done
Projecting the internal gradient        .... done
Number of atoms                         ....  24
Number of internal coordinates          .... 124
Current Energy                          ....  -835.636306752 Eh
Current gradient norm                   ....     0.061994180 Eh/bohr
Maximum allowed component of the step   ....  0.300
Current trust radius                    ....  0.300
Evaluating the initial hessian          ....  (Almloef) done
Projecting the Hessian                  .... done
Forming the augmented Hessian           .... done
Diagonalizing the augmented Hessian     .... done
Last element of RFO vector              ....  0.993801672
Lowest eigenvalues of augmented Hessian:
 -0.004467546  0.012735238  0.013398932  0.017577473  0.020623581
Length of the computed step             ....  0.111860956
The final length of the internal step   ....  0.111860956
Converting the step to cartesian space:
 Initial RMS(Int)=    0.0100454104
Transforming coordinates:
 Iter   0:  RMS(Cart)=    0.0299863333 RMS(Int)=    1.2604785631
 Iter   1:  RMS(Cart)=    0.0005742223 RMS(Int)=    0.0003576795
 Iter   2:  RMS(Cart)=    0.0000219088 RMS(Int)=    0.0000085266
 Iter   3:  RMS(Cart)=    0.0000012226 RMS(Int)=    0.0000008282
 Iter   4:  RMS(Cart)=    0.0000000501 RMS(Int)=    0.0000000237
done
Storing new coordinates                 .... done

                                .--------------------.
          ----------------------|Geometry convergence|-------------------------
          Item                value                   Tolerance       Converged
          ---------------------------------------------------------------------
          RMS gradient        0.0040766116            0.0001000000      NO
          MAX gradient        0.0183798900            0.0003000000      NO
          RMS step            0.0100454104            0.0020000000      NO
          MAX step            0.0350168096            0.0040000000      NO
          ........................................................
          Max(Bonds)      0.0134      Max(Angles)    1.40
          Max(Dihed)        2.01      Max(Improp)    0.00
          ---------------------------------------------------------------------

The optimization has not yet converged - more geometry cycles are needed


    ---------------------------------------------------------------------------
                         Redundant Internal Coordinates
                            (Angstroem and degrees)

        Definition                    Value    dE/dq     Step     New-Value
    ----------------------------------------------------------------------------
     1. B(C   2,C   1)                1.5424 -0.002807  0.0040    1.5464   
     2. B(C   5,C   0)                1.4944 -0.007142  0.0088    1.5032   
     3. B(C   5,C   3)                1.3894 -0.009023  0.0076    1.3970   
     4. B(C   6,C   1)                1.5004 -0.005443  0.0067    1.5071   
     5. B(C   6,C   4)                1.3775 -0.009557  0.0077    1.3851   
     6. B(C   7,C   4)                1.3877 -0.004081  0.0035    1.3912   
     7. B(C   7,C   3)                1.3852 -0.004528  0.0038    1.3890   
     8. B(C   8,C   6)                1.3930 -0.000712  0.0005    1.3935   
     9. B(C   8,C   5)                1.3916 -0.004231  0.0035    1.3951   
    10. B(F  10,C   9)                1.3483  0.004630 -0.0040    1.3443   
    11. B(F  11,C   9)                1.3496  0.003642 -0.0032    1.3464   
    12. B(F  12,C   9)                1.3294  0.002944 -0.0024    1.3270   
    13. B(O  13,C   8)                1.3534  0.002396 -0.0019    1.3515   
    14. B(O  13,C   2)                1.4303 -0.003328  0.0037    1.4339   
    15. B(O  14,C   7)                1.4238  0.012074 -0.0128    1.4110   
    16. B(O  14,C   9)                1.3123 -0.018380  0.0130    1.3253   
    17. B(H  15,C   0)                1.0858 -0.008093  0.0116    1.0974   
    18. B(H  16,C   0)                1.0890 -0.008134  0.0118    1.1008   
    19. B(H  17,C   0)                1.0884 -0.008084  0.0117    1.1001   
    20. B(H  18,C   1)                1.0905 -0.006763  0.0098    1.1003   
    21. B(H  19,C   1)                1.0908 -0.006664  0.0097    1.1005   
    22. B(H  20,C   2)                1.0938 -0.004420  0.0065    1.1003   
    23. B(H  21,C   2)                1.0940 -0.004385  0.0065    1.1005   
    24. B(H  22,C   3)                1.0787 -0.009615  0.0134    1.0921   
    25. B(H  23,C   4)                1.0778 -0.009428  0.0131    1.0909   
    26. A(C   5,C   0,H  16)          109.97 -0.001966    0.37    110.34   
    27. A(C   5,C   0,H  17)          109.98 -0.002136    0.39    110.38   
    28. A(H  15,C   0,H  17)          109.41  0.001894   -0.38    109.03   
    29. A(C   5,C   0,H  15)          110.97 -0.001076    0.18    111.14   
    30. A(H  15,C   0,H  16)          109.07  0.001720   -0.33    108.74   
    31. A(H  16,C   0,H  17)          107.36  0.001703   -0.25    107.11   
    32. A(C   6,C   1,H  18)          111.62 -0.000270    0.12    111.74   
    33. A(C   2,C   1,H  18)          111.96 -0.000040    0.01    111.96   
    34. A(H  18,C   1,H  19)          108.12  0.000597   -0.29    107.83   
    35. A(C   2,C   1,C   6)          101.78 -0.000014    0.05    101.83   
    36. A(C   2,C   1,H  19)          111.93 -0.000030    0.00    111.93   
    37. A(C   6,C   1,H  19)          111.41 -0.000305    0.14    111.55   
    38. A(C   1,C   2,O  13)          108.03  0.002293   -0.35    107.68   
    39. A(O  13,C   2,H  21)          107.70 -0.000964    0.20    107.89   
    40. A(H  20,C   2,H  21)          108.60  0.000908   -0.22    108.38   
    41. A(C   1,C   2,H  21)          112.25 -0.000700    0.12    112.37   
    42. A(C   1,C   2,H  20)          112.36 -0.000614    0.09    112.45   
    43. A(O  13,C   2,H  20)          107.70 -0.000969    0.17    107.87   
[...]
      pz      :     0.993865  p :     2.707646
      px      :     0.873017
      py      :     0.840765
      dz2     :     0.002860  d :     0.033571
      dxz     :     0.006538
      dyz     :     0.004072
      dx2y2   :     0.011044
      dxy     :     0.009056
  4 C s       :     3.323365  s :     3.323365
      pz      :     0.989609  p :     2.696462
      px      :     0.802602
      py      :     0.904251
      dz2     :     0.002763  d :     0.034063
      dxz     :     0.003033
      dyz     :     0.007995
      dx2y2   :     0.010002
      dxy     :     0.010270
  5 C s       :     3.074537  s :     3.074537
      pz      :     1.025458  p :     3.046244
      px      :     1.031766
      py      :     0.989020
      dz2     :     0.003310  d :     0.042615
      dxz     :     0.007130
      dyz     :     0.006527
      dx2y2   :     0.011160
      dxy     :     0.014488
  6 C s       :     3.084246  s :     3.084246
      pz      :     1.057710  p :     3.015082
      px      :     1.003591
      py      :     0.953781
      dz2     :     0.003478  d :     0.042394
      dxz     :     0.006448
      dyz     :     0.007044
      dx2y2   :     0.015463
      dxy     :     0.009960
  7 C s       :     2.958163  s :     2.958163
      pz      :     1.086974  p :     2.831420
      px      :     0.959421
      py      :     0.785025
      dz2     :     0.005482  d :     0.070556
      dxz     :     0.008522
      dyz     :     0.010022
      dx2y2   :     0.022646
      dxy     :     0.023885
  8 C s       :     3.042786  s :     3.042786
      pz      :     0.972524  p :     2.709771
      px      :     0.934752
      py      :     0.802496
      dz2     :     0.005840  d :     0.077507
      dxz     :     0.008623
      dyz     :     0.017388
      dx2y2   :     0.023432
      dxy     :     0.022223
  9 C s       :     2.889279  s :     2.889279
      pz      :     0.794432  p :     2.294922
      px      :     0.751323
      py      :     0.749168
      dz2     :     0.041731  d :     0.234587
      dxz     :     0.057082
      dyz     :     0.045100
      dx2y2   :     0.041175
      dxy     :     0.049499
 10 F s       :     3.890783  s :     3.890783
      pz      :     1.699301  p :     5.275400
      px      :     1.683478
      py      :     1.892621
      dz2     :     0.001485  d :     0.008369
      dxz     :     0.003531
      dyz     :     0.000983
      dx2y2   :     0.001335
      dxy     :     0.001035
 11 F s       :     3.891121  s :     3.891121
      pz      :     1.830399  p :     5.277417
      px      :     1.696018
      py      :     1.750999
      dz2     :     0.001034  d :     0.008334
      dxz     :     0.001814
      dyz     :     0.001388
      dx2y2   :     0.001423
      dxy     :     0.002675
 12 F s       :     3.882058  s :     3.882058
      pz      :     1.883556  p :     5.258338
      px      :     1.820148
      py      :     1.554634
      dz2     :     0.001212  d :     0.008746
      dxz     :     0.000543
      dyz     :     0.001761
      dx2y2   :     0.002400
      dxy     :     0.002831
 13 O s       :     3.743120  s :     3.743120
      pz      :     1.804006  p :     4.582396
      px      :     1.563525
      py      :     1.214865
      dz2     :     0.002280  d :     0.017616
      dxz     :     0.002111
      dyz     :     0.002670
      dx2y2   :     0.003756
      dxy     :     0.006799
 14 O s       :     3.704725  s :     3.704725
      pz      :     1.472093  p :     4.584925
      px      :     1.682616
      py      :     1.430215
      dz2     :     0.005076  d :     0.017100
      dxz     :     0.003381
      dyz     :     0.004183
      dx2y2   :     0.002182
      dxy     :     0.002278
 15 H s       :     0.947032  s :     0.947032
      pz      :     0.005086  p :     0.023146
      px      :     0.005427
      py      :     0.012633
 16 H s       :     0.919965  s :     0.919965
      pz      :     0.011194  p :     0.023514
      px      :     0.004377
      py      :     0.007944
 17 H s       :     0.919333  s :     0.919333
      pz      :     0.010756  p :     0.023587
      px      :     0.005878
      py      :     0.006953
 18 H s       :     0.920296  s :     0.920296
      pz      :     0.012686  p :     0.022350
      px      :     0.005577
      py      :     0.004087
 19 H s       :     0.919665  s :     0.919665
      pz      :     0.009478  p :     0.022251
      px      :     0.008499
      py      :     0.004274
 20 H s       :     0.930786  s :     0.930786
      pz      :     0.011369  p :     0.021228
      px      :     0.002972
      py      :     0.006888
 21 H s       :     0.930634  s :     0.930634
      pz      :     0.011043  p :     0.020990
      px      :     0.003351
      py      :     0.006596
 22 H s       :     0.966678  s :     0.966678
      pz      :     0.004690  p :     0.022919
      px      :     0.005948
      py      :     0.012281
 23 H s       :     0.965538  s :     0.965538
      pz      :     0.004894  p :     0.023191
      px      :     0.015074
      py      :     0.003222


                     *******************************
                     * LOEWDIN POPULATION ANALYSIS *
                     *******************************

----------------------
LOEWDIN ATOMIC CHARGES
----------------------
   0 C :   -0.049510
   1 C :   -0.039848
   2 C :    0.100431
   3 C :   -0.031123
   4 C :   -0.033846
   5 C :   -0.054432
   6 C :   -0.062431
   7 C :    0.016867
   8 C :    0.049698
   9 C :    0.143447
  10 F :   -0.062116
  11 F :   -0.064075
  12 F :   -0.039227
  13 O :   -0.116740
  14 O :   -0.087128
  15 H :    0.033120
  16 H :    0.042725
  17 H :    0.042746
  18 H :    0.040354
  19 H :    0.041230
  20 H :    0.024244
  21 H :    0.025129
  22 H :    0.039813
  23 H :    0.040674

-------------------------------
LOEWDIN REDUCED ORBITAL CHARGES
-------------------------------
  0 C s       :     2.828137  s :     2.828137
      pz      :     1.075072  p :     3.149795
      px      :     1.007851
      py      :     1.066871
      dz2     :     0.012747  d :     0.071578
      dxz     :     0.013662
      dyz     :     0.013652
      dx2y2   :     0.018755
      dxy     :     0.012761
  1 C s       :     2.837078  s :     2.837078
      pz      :     1.077648  p :     3.117910
      px      :     1.031740
      py      :     1.008522
      dz2     :     0.015094  d :     0.084860
      dxz     :     0.021364
      dyz     :     0.010067
      dx2y2   :     0.017145
      dxy     :     0.021191
  2 C s       :     2.852316  s :     2.852316
      pz      :     1.085889  p :     2.916993
      px      :     0.897893
      py      :     0.933211
      dz2     :     0.018550  d :     0.130260
      dxz     :     0.013432
      dyz     :     0.035626
      dx2y2   :     0.021439
      dxy     :     0.041213
  3 C s       :     2.859904  s :     2.859904
      pz      :     0.990339  p :     3.082043
      px      :     1.044798
      py      :     1.046906
      dz2     :     0.006718  d :     0.089177
      dxz     :     0.014012
      dyz     :     0.008001
      dx2y2   :     0.032487
      dxy     :     0.027958
  4 C s       :     2.857814  s :     2.857814
      pz      :     0.991445  p :     3.085272
      px      :     1.042553
      py      :     1.051274
      dz2     :     0.006566  d :     0.090760
      dxz     :     0.005399
      dyz     :     0.017432
      dx2y2   :     0.030462
      dxy     :     0.030901
  5 C s       :     2.846296  s :     2.846296
      pz      :     0.992829  p :     3.102117
      px      :     1.043583
      py      :     1.065705
      dz2     :     0.007628  d :     0.106020
      dxz     :     0.012561
      dyz     :     0.013666
      dx2y2   :     0.032495
      dxy     :     0.039670
  6 C s       :     2.844345  s :     2.844345
      pz      :     1.015573  p :     3.109943
      px      :     1.056597
      py      :     1.037773
      dz2     :     0.007977  d :     0.108142
      dxz     :     0.013076
      dyz     :     0.013555
      dx2y2   :     0.044865
      dxy     :     0.028669
  7 C s       :     2.837447  s :     2.837447
      pz      :     1.052262  p :     2.982378
      px      :     1.044647
      py      :     0.885469
      dz2     :     0.011849  d :     0.163308
      dxz     :     0.017082
      dyz     :     0.019517
      dx2y2   :     0.056706
      dxy     :     0.058153
  8 C s       :     2.832962  s :     2.832962
      pz      :     0.971284  p :     2.937998
      px      :     1.045340
      py      :     0.921374
      dz2     :     0.012413  d :     0.179342
      dxz     :     0.017823
      dyz     :     0.034304
      dx2y2   :     0.059830
      dxy     :     0.054973
  9 C s       :     2.808033  s :     2.808033
      pz      :     0.885615  p :     2.571995
      px      :     0.843748
      py      :     0.842632
      dz2     :     0.083311  d :     0.476525
      dxz     :     0.121779
      dyz     :     0.090552
      dx2y2   :     0.078604
      dxy     :     0.102279
 10 F s       :     3.731814  s :     3.731814
      pz      :     1.722283  p :     5.316987
      px      :     1.708666
      py      :     1.886038
      dz2     :     0.002021  d :     0.013315
      dxz     :     0.006435
      dyz     :     0.001309
      dx2y2   :     0.002146
      dxy     :     0.001404
 11 F s       :     3.732245  s :     3.732245
      pz      :     1.835079  p :     5.318579
      px      :     1.717111
      py      :     1.766388
      dz2     :     0.001424  d :     0.013251
      dxz     :     0.003044
      dyz     :     0.002252
      dx2y2   :     0.001816
      dxy     :     0.004715
 12 F s       :     3.721228  s :     3.721228
      pz      :     1.880219  p :     5.304173
      px      :     1.824075
      py      :     1.599879
      dz2     :     0.002027  d :     0.013826
      dxz     :     0.000783
      dyz     :     0.002580
      dx2y2   :     0.003695
      dxy     :     0.004742
 13 O s       :     3.441849  s :     3.441849
      pz      :     1.786640  p :     4.643030
      px      :     1.593680
      py      :     1.262709
      dz2     :     0.003669  d :     0.031861
      dxz     :     0.002520
      dyz     :     0.004659
      dx2y2   :     0.007347
      dxy     :     0.013666
 14 O s       :     3.421146  s :     3.421146
      pz      :     1.519398  p :     4.633599
      px      :     1.663659
      py      :     1.450542
      dz2     :     0.009038  d :     0.032383
      dxz     :     0.006007
      dyz     :     0.008215
      dx2y2   :     0.004321
      dxy     :     0.004802
 15 H s       :     0.902131  s :     0.902131
      pz      :     0.013189  p :     0.064749
      px      :     0.016427
      py      :     0.035132
 16 H s       :     0.892057  s :     0.892057
      pz      :     0.030842  p :     0.065217
      px      :     0.013245
      py      :     0.021131
 17 H s       :     0.892076  s :     0.892076
      pz      :     0.029674  p :     0.065178
      px      :     0.017469
      py      :     0.018035
 18 H s       :     0.893112  s :     0.893112
      pz      :     0.035771  p :     0.066534
      px      :     0.017228
      py      :     0.013535
 19 H s       :     0.892220  s :     0.892220
      pz      :     0.026693  p :     0.066551
      px      :     0.025680
      py      :     0.014178
 20 H s       :     0.911377  s :     0.911377
      pz      :     0.032911  p :     0.064380
      px      :     0.009787
      py      :     0.021681
 21 H s       :     0.910638  s :     0.910638
      pz      :     0.032067  p :     0.064233
      px      :     0.010984
      py      :     0.021182
 22 H s       :     0.892111  s :     0.892111
      pz      :     0.014643  p :     0.068077
      px      :     0.018102
      py      :     0.035332
 23 H s       :     0.890968  s :     0.890968
      pz      :     0.014857  p :     0.068357
      px      :     0.042995
      py      :     0.010505


                      *****************************
                      * MAYER POPULATION ANALYSIS *
                      *****************************

  NA   - Mulliken gross atomic population
  ZA   - Total nuclear charge
  QA   - Mulliken gross atomic charge
  VA   - Mayer's total valence
  BVA  - Mayer's bonded valence
  FA   - Mayer's free valence

  ATOM       NA         ZA         QA         VA         BVA        FA
  0 C      5.9437     6.0000     0.0563     3.9162     3.9162     0.0000
  1 C      5.9817     6.0000     0.0183     3.9726     3.9726     0.0000
  2 C      5.7958     6.0000     0.2042     3.9564     3.9564     0.0000
  3 C      6.0373     6.0000    -0.0373     3.9160     3.9160     0.0000
  4 C      6.0539     6.0000    -0.0539     3.9006     3.9006     0.0000
  5 C      6.1634     6.0000    -0.1634     3.9768     3.9768     0.0000
  6 C      6.1417     6.0000    -0.1417     3.9060     3.9060     0.0000
  7 C      5.8601     6.0000     0.1399     3.8459     3.8459     0.0000
  8 C      5.8301     6.0000     0.1699     4.0440     4.0440    -0.0000
  9 C      5.4188     6.0000     0.5812     4.6124     4.6124    -0.0000
 10 F      9.1746     9.0000    -0.1746     1.1743     1.1743     0.0000
 11 F      9.1769     9.0000    -0.1769     1.1719     1.1719     0.0000
 12 F      9.1491     9.0000    -0.1491     1.1907     1.1907    -0.0000
 13 O      8.3431     8.0000    -0.3431     2.1759     2.1759     0.0000
 14 O      8.3067     8.0000    -0.3067     2.1017     2.1017     0.0000
 15 H      0.9702     1.0000     0.0298     0.9980     0.9980     0.0000
 16 H      0.9435     1.0000     0.0565     0.9913     0.9913    -0.0000
 17 H      0.9429     1.0000     0.0571     0.9906     0.9906     0.0000
 18 H      0.9426     1.0000     0.0574     0.9812     0.9812     0.0000
 19 H      0.9419     1.0000     0.0581     0.9818     0.9818    -0.0000
 20 H      0.9520     1.0000     0.0480     0.9805     0.9805     0.0000
 21 H      0.9516     1.0000     0.0484     0.9812     0.9812    -0.0000
 22 H      0.9896     1.0000     0.0104     1.0102     1.0102     0.0000
 23 H      0.9887     1.0000     0.0113     1.0072     1.0072    -0.0000

  Mayer bond orders larger than 0.100000
B(  0-C ,  5-C ) :   1.0353 B(  0-C , 15-H ) :   0.9593 B(  0-C , 16-H ) :   0.9604 
B(  0-C , 17-H ) :   0.9608 B(  1-C ,  2-C ) :   1.0879 B(  1-C ,  6-C ) :   1.0166 
B(  1-C , 18-H ) :   0.9302 B(  1-C , 19-H ) :   0.9300 B(  2-C , 13-O ) :   0.9329 
B(  2-C , 20-H ) :   0.9599 B(  2-C , 21-H ) :   0.9608 B(  3-C ,  5-C ) :   1.3787 
B(  3-C ,  7-C ) :   1.3944 B(  3-C , 22-H ) :   0.9957 B(  4-C ,  6-C ) :   1.3702 
B(  4-C ,  7-C ) :   1.3924 B(  4-C , 23-H ) :   1.0071 B(  5-C ,  8-C ) :   1.4122 
B(  6-C ,  8-C ) :   1.3728 B(  7-C , 14-O ) :   0.8918 B(  8-C , 13-O ) :   1.1384 
B(  9-C , 10-F ) :   1.1317 B(  9-C , 11-F ) :   1.1291 B(  9-C , 12-F ) :   1.1665 
B(  9-C , 14-O ) :   1.1498 

-------
TIMINGS
-------

Total SCF time: 0 days 0 hours 1 min 29 sec 

Total time                  ....      89.381 sec
Sum of individual times     ....      89.145 sec  ( 99.7%)

Fock matrix formation       ....      87.119 sec  ( 97.5%)
  XC integration            ....       4.339 sec  (  5.0% of F)
    Basis function eval.    ....       1.271 sec  ( 29.3% of XC)
    Density eval.           ....       0.834 sec  ( 19.2% of XC)
    XC-Functional eval.     ....       1.065 sec  ( 24.6% of XC)
    XC-Potential eval.      ....       1.048 sec  ( 24.2% of XC)
Diagonalization             ....       0.010 sec  (  0.0%)
Density matrix formation    ....       0.008 sec  (  0.0%)
Population analysis         ....       0.008 sec  (  0.0%)
Initial guess               ....       0.009 sec  (  0.0%)
Orbital Transformation      ....       0.000 sec  (  0.0%)
Orbital Orthonormalization  ....       0.006 sec  (  0.0%)
DIIS solution               ....       0.002 sec  (  0.0%)
SOSCF solution              ....       0.031 sec  (  0.0%)
Grid generation             ....       1.958 sec  (  2.2%)


-------------------------------------------------------------------------------
                          DFT DISPERSION CORRECTION                            
                                                                               
                              DFTD3 V3.1  Rev 1                                
                              USING zero damping                               
-------------------------------------------------------------------------------
The omegaB97X-D3 functional is recognized. Fit by Chai et al.
Active option DFTDOPT                   ...         3   

molecular C6(AA) [au] = 5859.283163 


            DFT-D V3
 parameters
 s6 scaling factor         :     1.0000 
 rs6 scaling factor        :     1.2810 
 s8 scaling factor         :     1.0000 
 rs8 scaling factor        :     1.0940 
 Damping factor alpha6     :    14.0000 
 Damping factor alpha8     :    16.0000 
 ad hoc parameters k1-k3   :    16.0000     1.3333    -4.0000 

 Edisp/kcal,au: -5.486022542372  -0.008742532478 
 E6   /kcal   :  -2.385835137 
 E8   /kcal   :  -3.100187405 
 % E8         :  56.510657420 

-------------------------   ----------------
Dispersion correction           -0.008742532
-------------------------   ----------------


-------------------------   --------------------
FINAL SINGLE POINT ENERGY      -835.639793692320
-------------------------   --------------------

                                *** OPTIMIZATION RUN DONE ***

                            ***************************************
                            *     ORCA property calculations      *
                            ***************************************

                                    ---------------------
                                    Active property flags
                                    ---------------------
   (+) Dipole Moment


------------------------------------------------------------------------------
                       ORCA ELECTRIC PROPERTIES CALCULATION
------------------------------------------------------------------------------

Dipole Moment Calculation                       ... on
Quadrupole Moment Calculation                   ... off
Polarizability Calculation                      ... off
GBWName                                         ... 057941108.gbw
Electron density file                           ... 057941108.scfp
The origin for moment calculation is the CENTER OF MASS  = ( 8.231918,  0.196471  0.893333)

-------------
DIPOLE MOMENT
-------------
                                X             Y             Z
Electronic contribution:     13.40880      22.04763       5.67622
Nuclear contribution   :    -13.52887     -23.34845      -5.90995
                        -----------------------------------------
Total Dipole Moment    :     -0.12008      -1.30082      -0.23372
                        -----------------------------------------
Magnitude (a.u.)       :      1.32709
Magnitude (Debye)      :      3.37320



--------------------
Rotational spectrum 
--------------------
 
Rotational constants in cm-1:     0.042260     0.011483     0.009695 
Rotational constants in MHz :  1266.929087   344.250141   290.634178 

 Dipole components along the rotational axes: 
x,y,z [a.u.] :     1.245018     0.458052    -0.035913 
x,y,z [Debye]:     3.164584     1.164277    -0.091284 

 

Timings for individual modules:

Sum of individual times         ...     2052.733 sec (=  34.212 min)
GTO integral calculation        ...        3.197 sec (=   0.053 min)   0.2 %
SCF iterations                  ...     1264.925 sec (=  21.082 min)  61.6 %
SCF Gradient evaluation         ...      783.524 sec (=  13.059 min)  38.2 %
Geometry relaxation             ...        1.087 sec (=   0.018 min)   0.1 %
                             ****ORCA TERMINATED NORMALLY****
TOTAL RUN TIME: 0 days 0 hours 34 minutes 14 seconds 192 msec
