
                                 *****************
                                 * O   R   C   A *
                                 *****************

           --- An Ab Initio, DFT and Semiempirical electronic structure package ---

                  #######################################################
                  #                        -***-                        #
                  #          Department of theory and spectroscopy      #
                  #               Directorship: Frank Neese             #
                  #        Max Planck Institute fuer Kohlenforschung    #
                  #                Kaiser Wilhelm Platz 1               #
                  #                 D-45470 Muelheim/Ruhr               #
                  #                      Germany                        #
                  #                                                     #
                  #                  All rights reserved                #
                  #                        -***-                        #
                  #######################################################


                         Program Version 4.2.0 -  RELEASE  -


 With contributions from (in alphabetic order):
   Daniel Aravena         : Magnetic Suceptibility
   Michael Atanasov       : Ab Initio Ligand Field Theory (pilot matlab implementation)
   Alexander A. Auer      : GIAO ZORA, VPT2
   Ute Becker             : Parallelization
   Giovanni Bistoni       : ED, misc. LED, open-shell LED, HFLED
   Martin Brehm           : Molecular dynamics
   Dmytro Bykov           : SCF Hessian
   Vijay G. Chilkuri      : MRCI spin determinant printing, contributions to CSF-ICE
   Dipayan Datta          : RHF DLPNO-CCSD density
   Achintya Kumar Dutta   : EOM-CC, STEOM-CC
   Dmitry Ganyushin       : Spin-Orbit,Spin-Spin,Magnetic field MRCI
   Miquel Garcia          : C-PCM Hessian, Gaussian charge scheme
   Yang Guo               : DLPNO-NEVPT2, CIM, IAO-localization
   Andreas Hansen         : Spin unrestricted coupled pair/coupled cluster methods
   Benjamin Helmich-Paris : CASSCF linear response (MC-RPA)
   Lee Huntington         : MR-EOM, pCC
   Robert Izsak           : Overlap fitted RIJCOSX, COSX-SCS-MP3, EOM
   Christian Kollmar      : KDIIS, OOCD, Brueckner-CCSD(T), CCSD density
   Simone Kossmann        : Meta GGA functionals, TD-DFT gradient, OOMP2, MP2 Hessian
   Martin Krupicka        : AUTO-CI
   Lucas Lang             : DCDCAS
   Dagmar Lenk            : GEPOL surface, SMD
   Dimitrios Liakos       : Extrapolation schemes; Compound Job, initial MDCI parallelization
   Dimitrios Manganas     : Further ROCIS development; embedding schemes
   Dimitrios Pantazis     : SARC Basis sets
   Taras Petrenko         : DFT Hessian,TD-DFT gradient, ASA, ECA, R-Raman, ABS, FL, XAS/XES, NRVS
   Peter Pinski           : DLPNO-MP2, DLPNO-MP2 Gradient
   Christoph Reimann      : Effective Core Potentials
   Marius Retegan         : Local ZFS, SOC
   Christoph Riplinger    : Optimizer, TS searches, QM/MM, DLPNO-CCSD(T), (RO)-DLPNO pert. Triples
   Tobias Risthaus        : Range-separated hybrids, TD-DFT gradient, RPA, STAB
   Michael Roemelt        : Original ROCIS implementation
   Masaaki Saitow         : Open-shell DLPNO-CCSD energy and density
   Barbara Sandhoefer     : DKH picture change effects
   Avijit Sen             : IP-ROCIS
   Kantharuban Sivalingam : CASSCF convergence, NEVPT2, FIC-MRCI
   Bernardo de Souza      : ESD, SOC TD-DFT
   Georgi Stoychev        : AutoAux, RI-MP2 NMR
   Willem Van den Heuvel  : Paramagnetic NMR
   Boris Wezisla          : Elementary symmetry handling
   Frank Wennmohs         : Technical directorship


 We gratefully acknowledge several colleagues who have allowed us to
 interface, adapt or use parts of their codes:
   Stefan Grimme, W. Hujo, H. Kruse,             : VdW corrections, initial TS optimization,
                  C. Bannwarth                     DFT functionals, gCP, sTDA/sTD-DF
   Ed Valeev, F. Pavosevic, A. Kumar             : LibInt (2-el integral package), F12 methods
   Garnet Chan, S. Sharma, J. Yang, R. Olivares  : DMRG
   Ulf Ekstrom                                   : XCFun DFT Library
   Mihaly Kallay                                 : mrcc  (arbitrary order and MRCC methods)
   Andreas Klamt, Michael Diedenhofen            : otool_cosmo (COSMO solvation model)
   Jiri Pittner, Ondrej Demel                    : Mk-CCSD
   Frank Weinhold                                : gennbo (NPA and NBO analysis)
   Christopher J. Cramer and Donald G. Truhlar   : smd solvation model
   Lars Goerigk                                  : TD-DFT with DH, B97 family of functionals
   V. Asgeirsson, H. Jonsson                     : NEB implementation
   FAccTs GmbH                                   : IRC, NEB, NEB-TS, Multilevel, MM, QM/MM, CI optimization
   S Lehtola, MJT Oliveira, MAL Marques          : LibXC Library


 Your calculation uses the libint2 library for the computation of 2-el integrals
 For citations please refer to: http://libint.valeyev.net

 Your ORCA version has been built with support for libXC version: 4.2.3
 For citations please refer to: https://tddft.org/programs/libxc/

 This ORCA versions uses:
   CBLAS   interface :  Fast vector & matrix operations
   LAPACKE interface :  Fast linear algebra routines
   SCALAPACK package :  Parallel linear algebra routines


Your calculation utilizes the atom-pairwise dispersion correction
with the zero-damping scheme (D30)
Cite in your paper:
S.Grimme, J.Antony, S.Ehrlich and H.Krieg, J.Chem.Phys., 132, (2010), 154104 
   

XCFun DFT library Copyright 2009-2010 Ulf Ekstrom and contributors.
See http://admol.org/xcfun for more information. This is free soft-
ware; see the source code for copying conditions. There is ABSOLUTELY
NO WARRANTY; not even for MERCHANTABILITY or FITNESS FOR A PARTICULAR
PURPOSE. For details see the documentation. Scientific users of this 
library should cite U. Ekstrom, L. Visscher, R. Bast, A. J. Thorvald-
sen and K. Ruud; J.Chem.Theor.Comp. 2010, DOI: 10.1021/ct100117s
XCFun Version 0.99 
----- Orbital basis set information -----
Your calculation utilizes the basis: def2-SVP
   F. Weigend and R. Ahlrichs, Phys. Chem. Chem. Phys. 7, 3297 (2005).

================================================================================
                                        WARNINGS
                       Please study these warnings very carefully!
================================================================================


WARNING: Geometry Optimization
  ===> : Switching off AutoStart
         For restart on a previous wavefunction, please use MOREAD

INFO   : the flag for use of LIBINT has been found!

================================================================================
                                       INPUT FILE
================================================================================
NAME = 011506687.inp
|  1> # ORCA input file
|  2> # -44.39047160
|  3> ! wB97X-D3 def2-SVP Opt
|  4> * xyz 0 1
|  5>    C        1.78470        -2.34980        -0.79400
|  6>    C        1.87910        -2.35060         0.70580
|  7>    C        2.37150        -1.17320        -0.07750
|  8>    N        1.69340         0.09200        -0.03420
|  9>    C        2.43080         1.23480        -0.07440
| 10>    O        3.64310         1.22280        -0.15040
| 11>    C        1.62370         2.51350        -0.01910
| 12>    H        0.94080         2.56740        -0.86380
| 13>    H        1.04020         2.55500         0.89770
| 14>    H        2.30850         3.35620        -0.05230
| 15>    C        0.27610         0.09850         0.05600
| 16>    C       -0.35010         0.09020         1.29950
| 17>    C       -1.72480         0.07390         1.38430
| 18>    C       -2.50800         0.06540         0.22730
| 19>    C       -1.88250         0.07750        -1.01530
| 20>    C       -0.50020         0.09370        -1.09330
| 21>    H       -0.01770         0.10630        -2.05980
| 22>    H       -2.45700         0.07340        -1.92790
| 23>    O       -3.85200         0.04720         0.42420
| 24>    C       -4.70060         0.03990        -0.69880
| 25>    H       -5.71390         0.02580        -0.30110
| 26>    H       -4.56540         0.93740        -1.31080
| 27>    H       -4.54270        -0.85010        -1.31640
| 28>    H       -2.22460         0.06620         2.33980
| 29>    H        0.25060         0.10010         2.19700
| 30>    H        3.43910        -1.00610        -0.14470
| 31>    H        0.95900        -2.24890         1.26080
| 32>    H        2.61000        -2.98580         1.18120
| 33>    H        0.80210        -2.24730        -1.22880
| 34>    H        2.44980        -2.98450        -1.35850
| 35> *
| 36> 
| 37>                          ****END OF INPUT****
================================================================================

                       *****************************
                       * Geometry Optimization Run *
                       *****************************

Geometry optimization settings:
Update method            Update   .... BFGS
Choice of coordinates    CoordSys .... Z-matrix Internals
Initial Hessian          InHess   .... Almoef's Model

Convergence Tolerances:
Energy Change            TolE     ....  5.0000e-06 Eh
Max. Gradient            TolMAXG  ....  3.0000e-04 Eh/bohr
RMS Gradient             TolRMSG  ....  1.0000e-04 Eh/bohr
Max. Displacement        TolMAXD  ....  4.0000e-03 bohr
RMS Displacement         TolRMSD  ....  2.0000e-03 bohr
Strict Convergence                ....  False
------------------------------------------------------------------------------
                        ORCA OPTIMIZATION COORDINATE SETUP
------------------------------------------------------------------------------

The optimization will be done in new redundant internal coordinates
Making redundant internal coordinates   ...  (new redundants) done
Evaluating the initial hessian          ...  (Almloef) done
Evaluating the coordinates              ...  done
Calculating the B-matrix                .... done
Calculating the G-matrix                .... done
Diagonalizing the G-matrix              .... done
Small eigenvalue found = 6.851e-03
Small eigenvalue found = 1.197e-02
Small eigenvalue found = 1.820e-02
The first mode is                       ....   75
The number of degrees of freedom        ....   84

    -----------------------------------------------------------------
                    Redundant Internal Coordinates


    -----------------------------------------------------------------
         Definition                    Initial Value    Approx d2E/dq
    -----------------------------------------------------------------
      1. B(C   1,C   0)                  1.5028         0.412880   
      2. B(C   2,C   1)                  1.4974         0.421062   
      3. B(C   2,C   0)                  1.4974         0.421162   
      4. B(N   3,C   2)                  1.4361         0.472392   
      5. B(C   4,N   3)                  1.3606         0.623308   
      6. B(O   5,C   4)                  1.2147         1.065351   
      7. B(C   6,C   4)                  1.5131         0.397469   
      8. B(H   7,C   6)                  1.0876         0.363349   
      9. B(H   8,C   6)                  1.0875         0.363385   
     10. B(H   9,C   6)                  1.0864         0.364936   
     11. B(C  10,N   3)                  1.4202         0.500866   
     12. B(C  11,C  10)                  1.3923         0.619549   
     13. B(C  12,C  11)                  1.3774         0.654374   
     14. B(C  13,C  12)                  1.3972         0.608523   
     15. B(C  14,C  13)                  1.3912         0.622037   
     16. B(C  15,C  14)                  1.3846         0.637329   
     17. B(C  15,C  10)                  1.3869         0.631899   
     18. B(H  16,C  15)                  1.0803         0.373138   
     19. B(H  17,C  14)                  1.0784         0.375803   
     20. B(O  18,C  13)                  1.3585         0.628321   
     21. B(C  19,O  18)                  1.4076         0.524584   
     22. B(H  20,C  19)                  1.0886         0.361901   
     23. B(H  21,C  19)                  1.0947         0.353959   
     24. B(H  22,C  19)                  1.0947         0.353880   
     25. B(H  23,C  12)                  1.0784         0.375845   
     26. B(H  24,C  11)                  1.0800         0.373546   
     27. B(H  25,C   2)                  1.0827         0.369907   
     28. B(H  26,C   1)                  1.0793         0.374496   
     29. B(H  27,C   1)                  1.0787         0.375296   
     30. B(H  28,C   0)                  1.0794         0.374427   
     31. B(H  29,C   0)                  1.0788         0.375191   
     32. A(C   2,C   0,H  29)          118.1041         0.333049   
     33. A(C   2,C   0,H  28)          118.3520         0.332937   
     34. A(C   1,C   0,H  29)          118.8934         0.331955   
     35. A(H  28,C   0,H  29)          113.9736         0.294531   
     36. A(C   1,C   0,C   2)           59.8833         0.377354   
     37. A(C   1,C   0,H  28)          117.3396         0.331843   
     38. A(C   2,C   1,H  27)          118.0808         0.333052   
     39. A(C   0,C   1,H  26)          117.3608         0.331853   
     40. A(H  26,C   1,H  27)          113.9828         0.294552   
     41. A(C   0,C   1,C   2)           59.8791         0.377339   
     42. A(C   0,C   1,H  27)          118.8619         0.331970   
     43. A(C   2,C   1,H  26)          118.3732         0.332934   
     44. A(C   0,C   2,C   1)           60.2376         0.378638   
     45. A(C   1,C   2,H  25)          118.5594         0.332254   
     46. A(C   1,C   2,N   3)          121.4441         0.383816   
     47. A(C   0,C   2,H  25)          118.5552         0.332267   
     48. A(N   3,C   2,H  25)          109.3598         0.336616   
     49. A(C   0,C   2,N   3)          121.4431         0.383832   
     50. A(C   2,N   3,C   4)          118.8913         0.408536   
     51. A(C   4,N   3,C  10)          122.6074         0.412798   
     52. A(C   2,N   3,C  10)          118.5004         0.393104   
     53. A(N   3,C   4,O   5)          122.3039         0.473114   
     54. A(O   5,C   4,C   6)          122.8856         0.438802   
     55. A(N   3,C   4,C   6)          114.8104         0.398837   
     56. A(H   8,C   6,H   9)          109.5344         0.291866   
     57. A(H   7,C   6,H   9)          109.4895         0.291862   
     58. A(C   4,C   6,H   7)          110.3913         0.328130   
     59. A(C   4,C   6,H   9)          108.5527         0.328366   
     60. A(H   7,C   6,H   8)          108.4194         0.291666   
     61. A(C   4,C   6,H   8)          110.4413         0.328135   
     62. A(C  11,C  10,C  15)          119.2318         0.435497   
     63. A(N   3,C  10,C  15)          120.3941         0.416497   
     64. A(N   3,C  10,C  11)          120.3676         0.415038   
     65. A(C  12,C  11,H  24)          120.2681         0.358378   
     66. A(C  10,C  11,H  24)          119.4711         0.355064   
     67. A(C  10,C  11,C  12)          120.2605         0.438249   
     68. A(C  13,C  12,H  23)          118.2878         0.354353   
     69. A(C  11,C  12,C  13)          120.5669         0.436832   
     70. A(C  11,C  12,H  23)          121.1453         0.358752   
     71. A(C  14,C  13,O  18)          125.0575         0.432516   
     72. A(C  12,C  13,O  18)          115.7625         0.430812   
     73. A(C  12,C  13,C  14)          119.1800         0.432865   
     74. A(C  15,C  14,H  17)          118.9621         0.357139   
     75. A(C  13,C  14,H  17)          121.0852         0.355669   
     76. A(C  13,C  14,C  15)          119.9526         0.436484   
     77. A(C  14,C  15,H  16)          119.7637         0.356707   
     78. A(C  10,C  15,H  16)          119.4282         0.356189   
     79. A(C  10,C  15,C  14)          120.8078         0.437723   
     80. A(C  13,O  18,C  19)          118.7433         0.416800   
     81. A(H  21,C  19,H  22)          109.4707         0.289264   
     82. A(H  20,C  19,H  22)          109.2577         0.290272   
     83. A(O  18,C  19,H  22)          111.5523         0.340030   
     84. A(H  20,C  19,H  21)          109.2575         0.290282   
     85. A(O  18,C  19,H  21)          111.5506         0.340043   
     86. A(O  18,C  19,H  20)          105.6501         0.341307   
     87. D(H  26,C   1,C   0,H  28)      0.0149         0.013499   
     88. D(H  27,C   1,C   0,C   2)   -107.5549         0.013499   
     89. D(C   2,C   1,C   0,H  28)   -108.5498         0.013499   
     90. D(H  26,C   1,C   0,H  29)   -143.8639         0.013499   
     91. D(C   2,C   1,C   0,H  29)    107.5714         0.013499   
     92. D(H  27,C   1,C   0,H  28)    143.8953         0.013499   
     93. D(H  27,C   1,C   0,H  29)      0.0166         0.013499   
     94. D(H  26,C   1,C   0,C   2)    108.5647         0.013499   
     95. D(H  25,C   2,C   1,H  26)    144.7083         0.014026   
     96. D(H  25,C   2,C   1,H  27)      0.4419         0.014026   
     97. D(N   3,C   2,C   0,H  28)     -3.9012         0.014032   
     98. D(H  25,C   2,C   0,H  28)   -144.7162         0.014032   
     99. D(N   3,C   2,C   0,H  29)    140.3504         0.014032   
    100. D(H  25,C   2,C   0,C   1)    108.4084         0.014032   
    101. D(N   3,C   2,C   0,C   1)   -110.7767         0.014032   
    102. D(C   1,C   2,C   0,H  29)   -108.8729         0.014032   
    103. D(H  25,C   2,C   1,C   0)   -108.4014         0.014026   
    104. D(N   3,C   2,C   1,C   0)    110.7749         0.014026   
    105. D(C   1,C   2,C   0,H  28)    106.8755         0.014032   
    106. D(N   3,C   2,C   1,H  27)   -140.3818         0.014026   
    107. D(N   3,C   2,C   1,H  26)      3.8847         0.014026   
    108. D(H  25,C   2,C   0,H  29)     -0.4646         0.014032   
    109. D(C   0,C   2,C   1,H  26)   -106.8902         0.014026   
    110. D(C   0,C   2,C   1,H  27)    108.8433         0.014026   
    111. D(C  10,N   3,C   2,H  25)   -179.9594         0.019071   
    112. D(C  10,N   3,C   2,C   1)    -35.9815         0.019071   
    113. D(C  10,N   3,C   2,C   0)     36.0721         0.019071   
    114. D(C   4,N   3,C   2,H  25)     -0.2762         0.019071   
    115. D(C   4,N   3,C   2,C   1)    143.7018         0.019071   
    116. D(C   4,N   3,C   2,C   0)   -144.2446         0.019071   
    117. D(O   5,C   4,N   3,C   2)      0.2641         0.031486   
    118. D(C   6,C   4,N   3,C  10)     -0.1479         0.031486   
    119. D(C   6,C   4,N   3,C   2)   -179.8174         0.031486   
    120. D(O   5,C   4,N   3,C  10)    179.9337         0.031486   
    121. D(H   9,C   6,C   4,O   5)     -0.3657         0.011731   
    122. D(H   9,C   6,C   4,N   3)    179.7163         0.011731   
    123. D(H   8,C   6,C   4,O   5)   -120.4647         0.011731   
    124. D(H   8,C   6,C   4,N   3)     59.6174         0.011731   
    125. D(H   7,C   6,C   4,O   5)    119.6481         0.011731   
    126. D(H   7,C   6,C   4,N   3)    -60.2699         0.011731   
    127. D(C  15,C  10,N   3,C   4)     90.7194         0.019835   
    128. D(C  15,C  10,N   3,C   2)    -89.6098         0.019835   
    129. D(C  11,C  10,N   3,C   4)    -90.2138         0.019835   
    130. D(C  11,C  10,N   3,C   2)     89.4570         0.019835   
    131. D(H  24,C  11,C  10,C  15)   -179.6221         0.026558   
    132. D(H  24,C  11,C  10,N   3)      1.3004         0.026558   
    133. D(C  12,C  11,C  10,C  15)      0.1673         0.026558   
    134. D(C  12,C  11,C  10,N   3)   -178.9102         0.026558   
    135. D(H  23,C  12,C  11,H  24)     -0.2807         0.029843   
    136. D(H  23,C  12,C  11,C  10)    179.9316         0.029843   
    137. D(C  13,C  12,C  11,H  24)    179.7920         0.029843   
    138. D(C  13,C  12,C  11,C  10)      0.0042         0.029843   
    139. D(O  18,C  13,C  12,H  23)     -0.0319         0.025567   
    140. D(O  18,C  13,C  12,C  11)    179.8975         0.025567   
    141. D(C  14,C  13,C  12,H  23)    179.8868         0.025567   
    142. D(C  14,C  13,C  12,C  11)     -0.1838         0.025567   
    143. D(H  17,C  14,C  13,O  18)      0.0333         0.026785   
    144. D(H  17,C  14,C  13,C  12)   -179.8773         0.026785   
    145. D(C  15,C  14,C  13,O  18)   -179.8985         0.026785   
    146. D(C  15,C  14,C  13,C  12)      0.1910         0.026785   
    147. D(H  16,C  15,C  10,N   3)     -1.2995         0.027696   
    148. D(C  14,C  15,C  10,C  11)     -0.1599         0.027696   
    149. D(C  14,C  15,C  10,N   3)    178.9174         0.027696   
    150. D(H  16,C  15,C  14,H  17)      0.2644         0.028206   
    151. D(H  16,C  15,C  14,C  13)   -179.8024         0.028206   
    152. D(C  10,C  15,C  14,H  17)   -179.9532         0.028206   
    153. D(C  10,C  15,C  14,C  13)     -0.0200         0.028206   
    154. D(H  16,C  15,C  10,C  11)    179.6232         0.027696   
    155. D(C  19,O  18,C  13,C  14)     -0.0120         0.029022   
    156. D(C  19,O  18,C  13,C  12)    179.9013         0.029022   
    157. D(H  22,C  19,O  18,C  13)     61.4107         0.021834   
    158. D(H  21,C  19,O  18,C  13)    -61.3617         0.021834   
    159. D(H  20,C  19,O  18,C  13)   -179.9749         0.021834   
    -----------------------------------------------------------------

Number of atoms                         .... 30
Number of degrees of freedom            .... 159

         *************************************************************
         *                GEOMETRY OPTIMIZATION CYCLE   1            *
         *************************************************************
---------------------------------
CARTESIAN COORDINATES (ANGSTROEM)
---------------------------------
  C      1.784700   -2.349800   -0.794000
  C      1.879100   -2.350600    0.705800
  C      2.371500   -1.173200   -0.077500
  N      1.693400    0.092000   -0.034200
  C      2.430800    1.234800   -0.074400
  O      3.643100    1.222800   -0.150400
  C      1.623700    2.513500   -0.019100
  H      0.940800    2.567400   -0.863800
  H      1.040200    2.555000    0.897700
  H      2.308500    3.356200   -0.052300
  C      0.276100    0.098500    0.056000
  C     -0.350100    0.090200    1.299500
  C     -1.724800    0.073900    1.384300
  C     -2.508000    0.065400    0.227300
  C     -1.882500    0.077500   -1.015300
  C     -0.500200    0.093700   -1.093300
  H     -0.017700    0.106300   -2.059800
  H     -2.457000    0.073400   -1.927900
  O     -3.852000    0.047200    0.424200
  C     -4.700600    0.039900   -0.698800
  H     -5.713900    0.025800   -0.301100
  H     -4.565400    0.937400   -1.310800
  H     -4.542700   -0.850100   -1.316400
  H     -2.224600    0.066200    2.339800
  H      0.250600    0.100100    2.197000
  H      3.439100   -1.006100   -0.144700
  H      0.959000   -2.248900    1.260800
  H      2.610000   -2.985800    1.181200
  H      0.802100   -2.247300   -1.228800
  H      2.449800   -2.984500   -1.358500

----------------------------
CARTESIAN COORDINATES (A.U.)
----------------------------
  NO LB      ZA    FRAG     MASS         X           Y           Z
   0 C     6.0000    0    12.011    3.372594   -4.440478   -1.500443
   1 C     6.0000    0    12.011    3.550984   -4.441990    1.333769
   2 C     6.0000    0    12.011    4.481486   -2.217027   -0.146454
   3 N     7.0000    0    14.007    3.200062    0.173855   -0.064629
   4 C     6.0000    0    12.011    4.593546    2.333434   -0.140596
   5 O     8.0000    0    15.999    6.884461    2.310757   -0.284215
   6 C     6.0000    0    12.011    3.068348    4.749827   -0.036094
   7 H     1.0000    0     1.008    1.777854    4.851683   -1.632345
   8 H     1.0000    0     1.008    1.965693    4.828250    1.696407
   9 H     1.0000    0     1.008    4.362433    6.342299   -0.098833
  10 C     6.0000    0    12.011    0.521753    0.186138    0.105825
  11 C     6.0000    0    12.011   -0.661593    0.170453    2.455699
  12 C     6.0000    0    12.011   -3.259400    0.139651    2.615948
  13 C     6.0000    0    12.011   -4.739433    0.123588    0.429535
  14 C     6.0000    0    12.011   -3.557409    0.146454   -1.918639
  15 C     6.0000    0    12.011   -0.945241    0.177067   -2.066038
  16 H     1.0000    0     1.008   -0.033448    0.200878   -3.892458
  17 H     1.0000    0     1.008   -4.643057    0.138706   -3.643203
  18 O     8.0000    0    15.999   -7.279225    0.089195    0.801622
  19 C     6.0000    0    12.011   -8.882847    0.075400   -1.320541
  20 H     1.0000    0     1.008  -10.797706    0.048755   -0.568997
  21 H     1.0000    0     1.008   -8.627356    1.771429   -2.477053
  22 H     1.0000    0     1.008   -8.584459   -1.606456   -2.487635
  23 H     1.0000    0     1.008   -4.203885    0.125100    4.421581
  24 H     1.0000    0     1.008    0.473565    0.189162    4.151728
  25 H     1.0000    0     1.008    6.498957   -1.901253   -0.273443
  26 H     1.0000    0     1.008    1.812247   -4.249805    2.382567
  27 H     1.0000    0     1.008    4.932185   -5.642344    2.232145
  28 H     1.0000    0     1.008    1.515749   -4.246782   -2.322095
  29 H     1.0000    0     1.008    4.629451   -5.639888   -2.567193

--------------------------------
INTERNAL COORDINATES (ANGSTROEM)
--------------------------------
 C      0   0   0     0.000000000000     0.00000000     0.00000000
 C      1   0   0     1.502768125826     0.00000000     0.00000000
 C      1   2   0     1.497362364293    59.88334982     0.00000000
 N      3   1   2     1.436114737756   121.44305146   249.22334907
 C      4   3   1     1.360649344982   118.89134945   215.75536968
 O      5   4   3     1.214739185998   122.30393090     0.26408654
 C      5   4   3     1.513123322800   114.81039670   180.18256507
 H      7   5   4     1.087554922751   110.39133766   299.73014784
 H      7   5   4     1.087527811139   110.44125613    59.61738741
 H      7   5   4     1.086368524029   108.55271549   179.71631682
 C      4   3   1     1.420182234785   118.50044750    36.07209596
 C     11   4   3     1.392295794722   120.36760213    89.45699243
 C     12  11   4     1.377409459819   120.26047807   181.08981583
 C     13  12  11     1.397184128882   120.56688762     0.00000000
 C     14  13  12     1.391205024430   119.17997717   359.81615559
 C     15  14  13     1.384593705749   119.95263451     0.19098286
 H     16  15  14     1.080318129071   119.76365099   180.19761487
 H     15  14  13     1.078381110740   121.08522361   180.12272296
 O     14  13  12     1.358468567910   115.76246002   179.89746321
 C     19  14  13     1.407588096710   118.74326949   179.90130586
 H     20  19  14     1.088641809780   105.65010159   180.02510360
 H     20  19  14     1.094682278106   111.55059707   298.63834655
 H     20  19  14     1.094742969834   111.55231408    61.41072946
 H     13  12  11     1.078350397598   121.14526309   179.93157602
 H     12  11   4     1.080020717394   119.47108151     1.30040416
 H      3   1   2     1.082685554536   118.55519154   108.40835477
 H      2   1   3     1.079329375121   117.36079701   108.56470731
 H      2   1   3     1.078748816917   118.86191496   252.44514055
 H      1   2   3     1.079379474513   117.33962742   251.45018561
 H      1   2   3     1.078824522339   118.89335290   107.57143060

---------------------------
INTERNAL COORDINATES (A.U.)
---------------------------
 C      0   0   0     0.000000000000     0.00000000     0.00000000
 C      1   0   0     2.839820200598     0.00000000     0.00000000
 C      1   2   0     2.829604791754    59.88334982     0.00000000
 N      3   1   2     2.713863551247   121.44305146   249.22334907
 C      4   3   1     2.571254626315   118.89134945   215.75536968
 O      5   4   3     2.295524385679   122.30393090     0.26408654
 C      5   4   3     2.859388686940   114.81039670   180.18256507
 H      7   5   4     2.055180959597   110.39133766   299.73014784
 H      7   5   4     2.055129726075   110.44125613    59.61738741
 H      7   5   4     2.052938990926   108.55271549   179.71631682
 C      4   3   1     2.683755484005   118.50044750    36.07209596
 C     11   4   3     2.631057749434   120.36760213    89.45699243
 C     12  11   4     2.602926653331   120.26047807   181.08981583
 C     13  12  11     2.640295362248   120.56688762     0.00000000
 C     14  13  12     2.628996492308   119.17997717   359.81615559
 C     15  14  13     2.616502910617   119.95263451     0.19098286
 H     16  15  14     2.041505401455   119.76365099   180.19761487
 H     15  14  13     2.037844967292   121.08522361   180.12272296
 O     14  13  12     2.567133554890   115.76246002   179.89746321
 C     19  14  13     2.659956012150   118.74326949   179.90130586
 H     20  19  14     2.057234878420   105.65010159   180.02510360
 H     20  19  14     2.068649709278   111.55059707   298.63834655
 H     20  19  14     2.068764400021   111.55231408    61.41072946
 H     13  12  11     2.037786927866   121.14526309   179.93157602
 H     12  11   4     2.040943374836   119.47108151     1.30040416
 H      3   1   2     2.045979187225   118.55519154   108.40835477
 H      2   1   3     2.039636927276   117.36079701   108.56470731
 H      2   1   3     2.038539831265   118.86191496   252.44514055
 H      1   2   3     2.039731601405   117.33962742   251.45018561
 H      1   2   3     2.038682893779   118.89335290   107.57143060

---------------------
BASIS SET INFORMATION
---------------------
There are 4 groups of distinct atoms

 Group   1 Type C   : 7s4p1d contracted to 3s2p1d pattern {511/31/1}
 Group   2 Type N   : 7s4p1d contracted to 3s2p1d pattern {511/31/1}
 Group   3 Type O   : 7s4p1d contracted to 3s2p1d pattern {511/31/1}
 Group   4 Type H   : 4s1p contracted to 2s1p pattern {31/1}

Atom   0C    basis set group =>   1
Atom   1C    basis set group =>   1
Atom   2C    basis set group =>   1
Atom   3N    basis set group =>   2
Atom   4C    basis set group =>   1
Atom   5O    basis set group =>   3
Atom   6C    basis set group =>   1
Atom   7H    basis set group =>   4
Atom   8H    basis set group =>   4
Atom   9H    basis set group =>   4
Atom  10C    basis set group =>   1
Atom  11C    basis set group =>   1
Atom  12C    basis set group =>   1
Atom  13C    basis set group =>   1
Atom  14C    basis set group =>   1
Atom  15C    basis set group =>   1
Atom  16H    basis set group =>   4
Atom  17H    basis set group =>   4
Atom  18O    basis set group =>   3
Atom  19C    basis set group =>   1
Atom  20H    basis set group =>   4
Atom  21H    basis set group =>   4
Atom  22H    basis set group =>   4
Atom  23H    basis set group =>   4
Atom  24H    basis set group =>   4
Atom  25H    basis set group =>   4
Atom  26H    basis set group =>   4
Atom  27H    basis set group =>   4
Atom  28H    basis set group =>   4
Atom  29H    basis set group =>   4
------------------------------------------------------------------------------
                           ORCA GTO INTEGRAL CALCULATION
------------------------------------------------------------------------------

                         BASIS SET STATISTICS AND STARTUP INFO

 # of primitive gaussian shells          ...  255
 # of primitive gaussian functions       ...  465
 # of contracted shells                  ...  135
 # of contracted basis functions         ...  285
 Highest angular momentum                ...    2
 Maximum contraction depth               ...    5
 Integral package used                   ... LIBINT
 Integral threshhold            Thresh   ...  2.500e-11
 Primitive cut-off              TCut     ...  2.500e-12


------------------------------ INTEGRAL EVALUATION ----------------------------


 * One electron integrals 
 Pre-screening matrix                    ... done
 Shell pair data                         ... done (   0.002 sec)

-------------------------------------------------------------------------------
                                 ORCA SCF
-------------------------------------------------------------------------------

------------
SCF SETTINGS
------------
Hamiltonian:
 Density Functional     Method          .... DFT(GTOs)
 Exchange Functional    Exchange        .... WB97X-D3
 Correlation Functional Correlation     .... WB97X-D3
 Gradients option       PostSCFGGA      .... off
 Hybrid DFT is turned on
   Fraction HF Exchange ScalHFX         ....  0.195728
   Scaling of DF-GGA-X  ScalDFX         ....  0.000000
   Scaling of DF-GGA-C  ScalDFC         ....  1.000000
   Scaling of DF-LDA-C  ScalLDAC        ....  1.000000
   Perturbative correction              ....  0.000000
   Density functional embedding theory  .... OFF
 Long-range corrected/Screened/Range-Separated Hybrid DFT is turned on
   Amount of maximum screened exact exchange              ....  0.804272
   Range separation parameter mu (erf(mu*r12)/r12)        ....  0.250000


General Settings:
 Integral files         IntName         .... 011506687
 Hartree-Fock type      HFTyp           .... RHF
 Total Charge           Charge          ....    0
 Multiplicity           Mult            ....    1
 Number of Electrons    NEL             ....  110
 Basis Dimension        Dim             ....  285
 Nuclear Repulsion      ENuc            ....    992.8530503904 Eh

Convergence Acceleration:
 DIIS                   CNVDIIS         .... on
   Start iteration      DIISMaxIt       ....    12
   Startup error        DIISStart       ....  0.200000
   # of expansion vecs  DIISMaxEq       ....     5
   Bias factor          DIISBfac        ....   1.050
   Max. coefficient     DIISMaxC        ....  10.000
 Newton-Raphson         CNVNR           .... off
 SOSCF                  CNVSOSCF        .... on
   Start iteration      SOSCFMaxIt      ....   150
   Startup grad/error   SOSCFStart      ....  0.003300
 Level Shifting         CNVShift        .... on
   Level shift para.    LevelShift      ....    0.2500
   Turn off err/grad.   ShiftErr        ....    0.0010
 Zerner damping         CNVZerner       .... off
 Static damping         CNVDamp         .... on
   Fraction old density DampFac         ....    0.7000
   Max. Damping (<1)    DampMax         ....    0.9800
   Min. Damping (>=0)   DampMin         ....    0.0000
   Turn off err/grad.   DampErr         ....    0.1000
 Fernandez-Rico         CNVRico         .... off

SCF Procedure:
 Maximum # iterations   MaxIter         ....   125
 SCF integral mode      SCFMode         .... Direct
   Integral package                     .... LIBINT
 Reset frequency        DirectResetFreq ....    20
 Integral Threshold     Thresh          ....  2.500e-11 Eh
 Primitive CutOff       TCut            ....  2.500e-12 Eh

Convergence Tolerance:
 Convergence Check Mode ConvCheckMode   .... Total+1el-Energy
 Convergence forced     ConvForced      .... 0
 Energy Change          TolE            ....  1.000e-08 Eh
 1-El. energy change                    ....  1.000e-05 Eh
 Orbital Gradient       TolG            ....  1.000e-05
 Orbital Rotation angle TolX            ....  1.000e-05
 DIIS Error             TolErr          ....  5.000e-07


Diagonalization of the overlap matrix:
Smallest eigenvalue                        ... 2.027e-04
Time for diagonalization                   ...    0.071 sec
Threshold for overlap eigenvalues          ... 1.000e-08
Number of eigenvalues below threshold      ... 0
Time for construction of square roots      ...    0.005 sec
Total time needed                          ...    0.076 sec

-------------------
DFT GRID GENERATION
-------------------

General Integration Accuracy     IntAcc      ...  4.340
Radial Grid Type                 RadialGrid  ... Gauss-Chebyshev
Angular Grid (max. acc.)         AngularGrid ... Lebedev-110
Angular grid pruning method      GridPruning ... 3 (G Style)
Weight generation scheme         WeightScheme... Becke
Basis function cutoff            BFCut       ...    1.0000e-11
Integration weight cutoff        WCut        ...    1.0000e-14
Grids for H and He will be reduced by one unit

# of grid points (after initial pruning)     ...  36916 (   0.0 sec)
# of grid points (after weights+screening)   ...  33104 (   0.2 sec)
nearest neighbour list constructed           ...    0.0 sec
Grid point re-assignment to atoms done       ...    0.0 sec
Grid point division into batches done        ...    0.0 sec
Reduced shell lists constructed in    0.3 sec

Total number of grid points                  ...    33104
Total number of batches                      ...      535
Average number of points per batch           ...       61
Average number of grid points per atom       ...     1103
Average number of shells per batch           ...    78.96 (58.49%)
Average number of basis functions per batch  ...   158.62 (55.65%)
Average number of large shells per batch     ...    55.82 (70.70%)
Average number of large basis fcns per batch ...   111.63 (70.38%)
Maximum spatial batch extension              ...  19.70, 20.61, 21.66 au
Average spatial batch extension              ...   3.29,  3.41,  3.52 au

Time for grid setup =    0.515 sec

------------------------------
INITIAL GUESS: MODEL POTENTIAL
------------------------------
Loading Hartree-Fock densities                     ... done
Calculating cut-offs                               ... done
Setting up the integral package                    ... done
Initializing the effective Hamiltonian             ... done
Starting the Coulomb interaction                   ... done (   0.4 sec)
Reading the grid                                   ... done
Mapping shells                                     ... done
Starting the XC term evaluation                    ... done (   0.5 sec)
  promolecular density results
     # of electrons  =    110.004717091
     EX              =    -88.744605599
     EC              =     -3.682483492
     EX+EC           =    -92.427089090
Transforming the Hamiltonian                       ... done (   0.0 sec)
Diagonalizing the Hamiltonian                      ... done (   0.0 sec)
Back transforming the eigenvectors                 ... done (   0.0 sec)
Now organizing SCF variables                       ... done
                      ------------------
                      INITIAL GUESS DONE (   1.5 sec)
                      ------------------
--------------
SCF ITERATIONS
--------------
ITER       Energy         Delta-E        Max-DP      RMS-DP      [F,P]     Damp
               ***  Starting incremental Fock matrix formation  ***
  0   -670.4822571215   0.000000000000 0.07853964  0.00168841  0.2550929 0.7000
  1   -670.6109519438  -0.128694822261 0.05031909  0.00124015  0.1252726 0.7000
                               ***Turning on DIIS***
  2   -670.6764530607  -0.065501116922 0.08791615  0.00249496  0.0535869 0.0000
  3   -670.7870750905  -0.110622029810 0.03971876  0.00071763  0.0619826 0.0000
  4   -670.8010923393  -0.014017248734 0.01057624  0.00016758  0.0130454 0.0000
  5   -670.8015984817  -0.000506142414 0.00422716  0.00007469  0.0072718 0.0000
                      *** Initiating the SOSCF procedure ***
                           *** Shutting down DIIS ***
                      *** Re-Reading the Fockian *** 
                      *** Removing any level shift *** 
ITER      Energy       Delta-E        Grad      Rot      Max-DP    RMS-DP
  6   -670.80169629  -0.0000978106  0.000978  0.000978  0.002170  0.000036
               *** Restarting incremental Fock matrix formation ***
  7   -670.80170919  -0.0000128968  0.000323  0.000737  0.001566  0.000026
  8   -670.80171327  -0.0000040768  0.000341  0.001232  0.000959  0.000021
  9   -670.80171427  -0.0000010089  0.000170  0.000345  0.000330  0.000007
 10   -670.80171468  -0.0000004032  0.000031  0.000046  0.000102  0.000002
 11   -670.80171469  -0.0000000137  0.000017  0.000035  0.000054  0.000001
 12   -670.80171471  -0.0000000141  0.000005  0.000015  0.000010  0.000000
 13   -670.80171471  -0.0000000008  0.000003  0.000008  0.000005  0.000000
                  ***Gradient check signals convergence***
              ***Rediagonalizing the Fockian in SOSCF/NRSCF***

               *****************************************************
               *                     SUCCESS                       *
               *           SCF CONVERGED AFTER  14 CYCLES          *
               *****************************************************

Setting up the final grid:

General Integration Accuracy     IntAcc      ...  4.670
Radial Grid Type                 RadialGrid  ... Gauss-Chebyshev
Angular Grid (max. acc.)         AngularGrid ... Lebedev-302
Angular grid pruning method      GridPruning ... 3 (G Style)
Weight generation scheme         WeightScheme... Becke
Basis function cutoff            BFCut       ...    1.0000e-11
Integration weight cutoff        WCut        ...    1.0000e-14
Grids for H and He will be reduced by one unit

# of grid points (after initial pruning)     ... 144090 (   0.1 sec)
# of grid points (after weights+screening)   ... 126722 (   0.7 sec)
nearest neighbour list constructed           ...    0.0 sec
Grid point re-assignment to atoms done       ...    0.0 sec
Grid point division into batches done        ...    0.4 sec
Reduced shell lists constructed in    1.4 sec

Total number of grid points                  ...   126722
Total number of batches                      ...     1996
Average number of points per batch           ...       63
Average number of grid points per atom       ...     4224
Average number of shells per batch           ...    72.05 (53.37%)
Average number of basis functions per batch  ...   143.47 (50.34%)
Average number of large shells per batch     ...    49.97 (69.35%)
Average number of large basis fcns per batch ...    98.99 (69.00%)
Maximum spatial batch extension              ...  20.61, 26.79, 20.75 au
Average spatial batch extension              ...   2.23,  2.30,  2.33 au

Final grid set up in    2.2 sec
Final integration                            ... done (   2.4 sec)
Change in XC energy                          ...     0.001772845
Integrated number of electrons               ...   109.999934517
Previous integrated no of electrons          ...   110.004698644

----------------
TOTAL SCF ENERGY
----------------

Total Energy       :         -670.79994186 Eh          -18253.39440 eV

Components:
Nuclear Repulsion  :          992.85305039 Eh           27016.90501 eV
Electronic Energy  :        -1663.65299225 Eh          -45270.29942 eV
One Electron Energy:        -2880.06946863 Eh          -78370.67453 eV
Two Electron Energy:         1216.41647638 Eh           33100.37511 eV

Virial components:
Potential Energy   :        -1334.89814488 Eh          -36324.42522 eV
Kinetic Energy     :          664.09820302 Eh           18071.03082 eV
Virial Ratio       :            2.01009149


DFT components:
N(Alpha)           :       54.999967258470 electrons
N(Beta)            :       54.999967258470 electrons
N(Total)           :      109.999934516940 electrons
E(XC)              :      -65.162526438533 Eh       
DFET-embed. en.    :        0.000000000000 Eh       

---------------
SCF CONVERGENCE
---------------

  Last Energy change         ...   -4.0586e-11  Tolerance :   1.0000e-08
  Last MAX-Density change    ...    2.2126e-06  Tolerance :   1.0000e-07
  Last RMS-Density change    ...    5.6747e-08  Tolerance :   5.0000e-09
  Last Orbital Gradient      ...    8.1461e-07  Tolerance :   1.0000e-05
  Last Orbital Rotation      ...    3.8973e-06  Tolerance :   1.0000e-05

             **** THE GBW FILE WAS UPDATED (011506687.gbw) ****
             **** DENSITY FILE WAS UPDATED (011506687.scfp) ****
             **** ENERGY FILE WAS UPDATED (011506687.en.tmp) ****
             **** THE GBW FILE WAS UPDATED (011506687.gbw) ****
             **** DENSITY FILE WAS UPDATED (011506687.scfp) ****
----------------
ORBITAL ENERGIES
----------------

  NO   OCC          E(Eh)            E(eV) 
   0   2.0000     -19.282574      -524.7055 
   1   2.0000     -19.191196      -522.2190 
   2   2.0000     -14.455972      -393.3670 
   3   2.0000     -10.379793      -282.4485 
   4   2.0000     -10.366058      -282.0748 
   5   2.0000     -10.353460      -281.7320 
   6   2.0000     -10.331044      -281.1220 
   7   2.0000     -10.320967      -280.8478 
   8   2.0000     -10.308418      -280.5063 
   9   2.0000     -10.306777      -280.4617 
  10   2.0000     -10.303934      -280.3843 
  11   2.0000     -10.299154      -280.2542 
  12   2.0000     -10.285342      -279.8784 
  13   2.0000     -10.284935      -279.8673 
  14   2.0000     -10.281414      -279.7715 
  15   2.0000      -1.188022       -32.3277 
  16   2.0000      -1.138751       -30.9870 
  17   2.0000      -1.059961       -28.8430 
  18   2.0000      -0.982570       -26.7371 
  19   2.0000      -0.956951       -26.0400 
  20   2.0000      -0.882516       -24.0145 
  21   2.0000      -0.873050       -23.7569 
  22   2.0000      -0.845094       -22.9962 
  23   2.0000      -0.816939       -22.2300 
  24   2.0000      -0.741926       -20.1888 
  25   2.0000      -0.726532       -19.7699 
  26   2.0000      -0.721543       -19.6342 
  27   2.0000      -0.706214       -19.2171 
  28   2.0000      -0.674713       -18.3599 
  29   2.0000      -0.647480       -17.6188 
  30   2.0000      -0.615681       -16.7535 
  31   2.0000      -0.612542       -16.6681 
  32   2.0000      -0.591923       -16.1070 
  33   2.0000      -0.587544       -15.9879 
  34   2.0000      -0.562586       -15.3088 
  35   2.0000      -0.559854       -15.2344 
  36   2.0000      -0.550264       -14.9734 
  37   2.0000      -0.541033       -14.7223 
  38   2.0000      -0.527862       -14.3639 
  39   2.0000      -0.523807       -14.2535 
  40   2.0000      -0.511942       -13.9307 
  41   2.0000      -0.499502       -13.5921 
  42   2.0000      -0.485479       -13.2106 
  43   2.0000      -0.483540       -13.1578 
  44   2.0000      -0.466729       -12.7003 
  45   2.0000      -0.463838       -12.6217 
  46   2.0000      -0.459880       -12.5140 
  47   2.0000      -0.434664       -11.8278 
  48   2.0000      -0.434217       -11.8157 
  49   2.0000      -0.416958       -11.3460 
  50   2.0000      -0.396479       -10.7887 
  51   2.0000      -0.360330        -9.8051 
  52   2.0000      -0.343058        -9.3351 
  53   2.0000      -0.317005        -8.6261 
  54   2.0000      -0.316412        -8.6100 
  55   0.0000       0.051657         1.4057 
  56   0.0000       0.062543         1.7019 
  57   0.0000       0.121890         3.3168 
  58   0.0000       0.137188         3.7331 
  59   0.0000       0.153570         4.1789 
  60   0.0000       0.165164         4.4943 
  61   0.0000       0.173383         4.7180 
  62   0.0000       0.176676         4.8076 
  63   0.0000       0.181694         4.9442 
  64   0.0000       0.199654         5.4329 
  65   0.0000       0.211258         5.7486 
  66   0.0000       0.213050         5.7974 
  67   0.0000       0.217054         5.9064 
  68   0.0000       0.221407         6.0248 
  69   0.0000       0.227967         6.2033 
  70   0.0000       0.232936         6.3385 
  71   0.0000       0.245697         6.6857 
  72   0.0000       0.250531         6.8173 
  73   0.0000       0.259503         7.0614 
  74   0.0000       0.261558         7.1173 
  75   0.0000       0.282092         7.6761 
  76   0.0000       0.286479         7.7955 
  77   0.0000       0.307980         8.3806 
  78   0.0000       0.317236         8.6324 
  79   0.0000       0.344890         9.3849 
  80   0.0000       0.348594         9.4857 
  81   0.0000       0.351187         9.5563 
  82   0.0000       0.356586         9.7032 
  83   0.0000       0.386388        10.5142 
  84   0.0000       0.395666        10.7666 
  85   0.0000       0.417846        11.3702 
  86   0.0000       0.422889        11.5074 
  87   0.0000       0.442784        12.0488 
  88   0.0000       0.452577        12.3152 
  89   0.0000       0.502369        13.6701 
  90   0.0000       0.510151        13.8819 
  91   0.0000       0.514993        14.0137 
  92   0.0000       0.518801        14.1173 
  93   0.0000       0.534723        14.5505 
  94   0.0000       0.542379        14.7589 
  95   0.0000       0.553872        15.0716 
  96   0.0000       0.557491        15.1701 
  97   0.0000       0.571607        15.5542 
  98   0.0000       0.575123        15.6499 
  99   0.0000       0.583155        15.8684 
 100   0.0000       0.587686        15.9917 
 101   0.0000       0.600984        16.3536 
 102   0.0000       0.606325        16.4989 
 103   0.0000       0.615668        16.7532 
 104   0.0000       0.627157        17.0658 
 105   0.0000       0.634173        17.2567 
 106   0.0000       0.644852        17.5473 
 107   0.0000       0.656578        17.8664 
 108   0.0000       0.675786        18.3891 
 109   0.0000       0.688526        18.7357 
 110   0.0000       0.695724        18.9316 
 111   0.0000       0.698605        19.0100 
 112   0.0000       0.710547        19.3350 
 113   0.0000       0.719132        19.5686 
 114   0.0000       0.730664        19.8824 
 115   0.0000       0.736527        20.0419 
 116   0.0000       0.740886        20.1605 
 117   0.0000       0.742162        20.1953 
 118   0.0000       0.752317        20.4716 
 119   0.0000       0.755787        20.5660 
 120   0.0000       0.761340        20.7171 
 121   0.0000       0.766927        20.8691 
 122   0.0000       0.775185        21.0939 
 123   0.0000       0.779318        21.2063 
 124   0.0000       0.788428        21.4542 
 125   0.0000       0.788693        21.4614 
 126   0.0000       0.794257        21.6128 
 127   0.0000       0.798596        21.7309 
 128   0.0000       0.804906        21.9026 
 129   0.0000       0.811905        22.0931 
 130   0.0000       0.819745        22.3064 
 131   0.0000       0.826234        22.4830 
 132   0.0000       0.832346        22.6493 
 133   0.0000       0.853113        23.2144 
 134   0.0000       0.859771        23.3956 
 135   0.0000       0.874967        23.8090 
 136   0.0000       0.893480        24.3128 
 137   0.0000       0.906417        24.6649 
 138   0.0000       0.919383        25.0177 
 139   0.0000       0.937547        25.5120 
 140   0.0000       0.946304        25.7502 
 141   0.0000       0.965671        26.2772 
 142   0.0000       0.974978        26.5305 
 143   0.0000       0.997077        27.1318 
 144   0.0000       1.019947        27.7542 
 145   0.0000       1.026408        27.9300 
 146   0.0000       1.053241        28.6602 
 147   0.0000       1.082995        29.4698 
 148   0.0000       1.105586        30.0845 
 149   0.0000       1.112106        30.2619 
 150   0.0000       1.153247        31.3814 
 151   0.0000       1.168195        31.7882 
 152   0.0000       1.195371        32.5277 
 153   0.0000       1.216045        33.0903 
 154   0.0000       1.232735        33.5444 
 155   0.0000       1.257477        34.2177 
 156   0.0000       1.293627        35.2014 
 157   0.0000       1.306074        35.5401 
 158   0.0000       1.324646        36.0455 
 159   0.0000       1.328077        36.1388 
 160   0.0000       1.351009        36.7628 
 161   0.0000       1.357750        36.9463 
 162   0.0000       1.376361        37.4527 
 163   0.0000       1.384685        37.6792 
 164   0.0000       1.389590        37.8127 
 165   0.0000       1.401200        38.1286 
 166   0.0000       1.410343        38.3774 
 167   0.0000       1.436873        39.0993 
 168   0.0000       1.473762        40.1031 
 169   0.0000       1.501351        40.8538 
 170   0.0000       1.538244        41.8578 
 171   0.0000       1.556897        42.3653 
 172   0.0000       1.559955        42.4485 
 173   0.0000       1.601988        43.5923 
 174   0.0000       1.605067        43.6761 
 175   0.0000       1.643264        44.7155 
 176   0.0000       1.648276        44.8519 
 177   0.0000       1.671702        45.4893 
 178   0.0000       1.693411        46.0800 
 179   0.0000       1.704112        46.3713 
 180   0.0000       1.717538        46.7366 
 181   0.0000       1.727706        47.0133 
 182   0.0000       1.734387        47.1951 
 183   0.0000       1.774501        48.2866 
 184   0.0000       1.788067        48.6558 
 185   0.0000       1.793597        48.8062 
 186   0.0000       1.798036        48.9271 
 187   0.0000       1.804346        49.0987 
 188   0.0000       1.806997        49.1709 
 189   0.0000       1.822951        49.6050 
 190   0.0000       1.832847        49.8743 
 191   0.0000       1.835969        49.9593 
 192   0.0000       1.851618        50.3851 
 193   0.0000       1.859834        50.6087 
 194   0.0000       1.866184        50.7815 
 195   0.0000       1.877334        51.0849 
 196   0.0000       1.888044        51.3763 
 197   0.0000       1.898254        51.6541 
 198   0.0000       1.899908        51.6991 
 199   0.0000       1.916617        52.1538 
 200   0.0000       1.920727        52.2656 
 201   0.0000       1.922143        52.3042 
 202   0.0000       1.943048        52.8730 
 203   0.0000       1.959811        53.3292 
 204   0.0000       1.977564        53.8123 
 205   0.0000       1.983750        53.9806 
 206   0.0000       1.993961        54.2584 
 207   0.0000       2.011522        54.7363 
 208   0.0000       2.028615        55.2014 
 209   0.0000       2.038793        55.4784 
 210   0.0000       2.045601        55.6636 
 211   0.0000       2.066503        56.2324 
 212   0.0000       2.074566        56.4518 
 213   0.0000       2.081467        56.6396 
 214   0.0000       2.127700        57.8977 
 215   0.0000       2.137068        58.1526 
 216   0.0000       2.165598        58.9289 
 217   0.0000       2.194368        59.7118 
 218   0.0000       2.199599        59.8541 
 219   0.0000       2.205338        60.0103 
 220   0.0000       2.210684        60.1558 
 221   0.0000       2.225767        60.5662 
 222   0.0000       2.232625        60.7528 
 223   0.0000       2.261890        61.5492 
 224   0.0000       2.266410        61.6721 
 225   0.0000       2.276136        61.9368 
 226   0.0000       2.310114        62.8614 
 227   0.0000       2.310917        62.8832 
 228   0.0000       2.335953        63.5645 
 229   0.0000       2.352323        64.0100 
 230   0.0000       2.373045        64.5738 
 231   0.0000       2.403151        65.3931 
 232   0.0000       2.413776        65.6822 
 233   0.0000       2.414995        65.7154 
 234   0.0000       2.418548        65.8120 
 235   0.0000       2.423769        65.9541 
 236   0.0000       2.445976        66.5584 
 237   0.0000       2.460600        66.9563 
 238   0.0000       2.487054        67.6762 
 239   0.0000       2.499734        68.0212 
 240   0.0000       2.522238        68.6336 
 241   0.0000       2.527359        68.7729 
 242   0.0000       2.561445        69.7005 
 243   0.0000       2.595121        70.6168 
 244   0.0000       2.601088        70.7792 
 245   0.0000       2.659237        72.3615 
 246   0.0000       2.702213        73.5310 
 247   0.0000       2.703711        73.5717 
 248   0.0000       2.715947        73.9047 
 249   0.0000       2.749898        74.8285 
 250   0.0000       2.761309        75.1390 
 251   0.0000       2.764178        75.2171 
 252   0.0000       2.783125        75.7327 
 253   0.0000       2.805172        76.3326 
 254   0.0000       2.839779        77.2743 
 255   0.0000       2.848823        77.5204 
 256   0.0000       2.869056        78.0710 
 257   0.0000       2.878010        78.3146 
 258   0.0000       2.886802        78.5539 
 259   0.0000       2.897764        78.8522 
 260   0.0000       2.914484        79.3071 
 261   0.0000       2.951031        80.3016 
 262   0.0000       2.962906        80.6248 
 263   0.0000       2.975866        80.9774 
 264   0.0000       2.980938        81.1155 
 265   0.0000       3.000256        81.6411 
 266   0.0000       3.008395        81.8626 
 267   0.0000       3.054424        83.1151 
 268   0.0000       3.059703        83.2587 
 269   0.0000       3.084512        83.9338 
 270   0.0000       3.108648        84.5906 
 271   0.0000       3.119212        84.8781 
 272   0.0000       3.167118        86.1817 
 273   0.0000       3.176014        86.4237 
 274   0.0000       3.231143        87.9239 
 275   0.0000       3.236709        88.0753 
 276   0.0000       3.243868        88.2701 
 277   0.0000       3.309117        90.0457 
 278   0.0000       3.321284        90.3767 
 279   0.0000       3.404946        92.6533 
 280   0.0000       3.515219        95.6540 
 281   0.0000       3.593542        97.7853 
 282   0.0000       3.631678        98.8230 
 283   0.0000       3.784542       102.9826 
 284   0.0000       3.834095       104.3310 

                    ********************************
                    * MULLIKEN POPULATION ANALYSIS *
                    ********************************

-----------------------
MULLIKEN ATOMIC CHARGES
-----------------------
   0 C :   -0.072634
   1 C :   -0.071215
   2 C :    0.025869
   3 N :   -0.240728
   4 C :    0.074911
   5 O :   -0.277623
   6 C :    0.042806
   7 H :    0.039560
   8 H :    0.041831
   9 H :    0.054452
  10 C :   -0.028735
  11 C :    0.035312
  12 C :   -0.054531
  13 C :    0.258482
  14 C :   -0.130268
  15 C :    0.038007
  16 H :    0.010147
  17 H :    0.001287
  18 O :   -0.338790
  19 C :    0.133262
  20 H :    0.059149
  21 H :    0.040039
  22 H :    0.040336
  23 H :    0.015979
  24 H :    0.012270
  25 H :    0.073432
  26 H :    0.054310
  27 H :    0.055976
  28 H :    0.052696
  29 H :    0.054411
Sum of atomic charges:    0.0000000

--------------------------------
MULLIKEN REDUCED ORBITAL CHARGES
--------------------------------
  0 C s       :     3.075678  s :     3.075678
      pz      :     0.940536  p :     2.961013
      px      :     1.015143
      py      :     1.005334
      dz2     :     0.009640  d :     0.035943
      dxz     :     0.007354
      dyz     :     0.009057
      dx2y2   :     0.004739
      dxy     :     0.005152
  1 C s       :     3.074332  s :     3.074332
      pz      :     0.933982  p :     2.960926
      px      :     1.022730
      py      :     1.004215
      dz2     :     0.009584  d :     0.035957
      dxz     :     0.007755
      dyz     :     0.008992
      dx2y2   :     0.004413
      dxy     :     0.005213
  2 C s       :     3.118132  s :     3.118132
      pz      :     1.040872  p :     2.796378
      px      :     0.993058
      py      :     0.762448
      dz2     :     0.009477  d :     0.059621
      dxz     :     0.005025
      dyz     :     0.017515
      dx2y2   :     0.013224
      dxy     :     0.014381
  3 N s       :     3.350416  s :     3.350416
      pz      :     1.669764  p :     3.863874
      px      :     1.082117
      py      :     1.111993
      dz2     :     0.002423  d :     0.026438
      dxz     :     0.002972
      dyz     :     0.004118
      dx2y2   :     0.008025
      dxy     :     0.008900
  4 C s       :     3.095448  s :     3.095448
      pz      :     0.814662  p :     2.707273
      px      :     0.925138
      py      :     0.967473
      dz2     :     0.006317  d :     0.122368
      dxz     :     0.028072
      dyz     :     0.010935
      dx2y2   :     0.025119
      dxy     :     0.051925
  5 O s       :     3.739014  s :     3.739014
      pz      :     1.435718  p :     4.520505
      px      :     1.316153
      py      :     1.768634
      dz2     :     0.002035  d :     0.018104
      dxz     :     0.005850
      dyz     :     0.000031
      dx2y2   :     0.006387
      dxy     :     0.003801
  6 C s       :     2.914946  s :     2.914946
      pz      :     1.026968  p :     3.018003
      px      :     1.006379
      py      :     0.984656
      dz2     :     0.005123  d :     0.024245
      dxz     :     0.007043
      dyz     :     0.001286
      dx2y2   :     0.003051
      dxy     :     0.007742
  7 H s       :     0.935154  s :     0.935154
      pz      :     0.011340  p :     0.025286
      px      :     0.009323
      py      :     0.004622
  8 H s       :     0.933171  s :     0.933171
      pz      :     0.012194  p :     0.024998
      px      :     0.008208
      py      :     0.004597
  9 H s       :     0.921840  s :     0.921840
      pz      :     0.004724  p :     0.023708
      px      :     0.009076
      py      :     0.009908
 10 C s       :     3.001585  s :     3.001585
      pz      :     1.016525  p :     2.968721
      px      :     0.869994
      py      :     1.082203
      dz2     :     0.013310  d :     0.058429
      dxz     :     0.021708
      dyz     :     0.007013
      dx2y2   :     0.009852
      dxy     :     0.006546
 11 C s       :     3.224443  s :     3.224443
      pz      :     0.902194  p :     2.704469
      px      :     0.841667
      py      :     0.960609
      dz2     :     0.007991  d :     0.035775
      dxz     :     0.012222
      dyz     :     0.004217
      dx2y2   :     0.004748
      dxy     :     0.006596
 12 C s       :     3.237949  s :     3.237949
      pz      :     0.880998  p :     2.783518
      px      :     0.876475
      py      :     1.026046
      dz2     :     0.006914  d :     0.033064
      dxz     :     0.012547
      dyz     :     0.003209
      dx2y2   :     0.004578
      dxy     :     0.005816
 13 C s       :     2.931073  s :     2.931073
      pz      :     1.008910  p :     2.733582
      px      :     0.771076
      py      :     0.953596
      dz2     :     0.015369  d :     0.076863
      dxz     :     0.021665
      dyz     :     0.007595
      dx2y2   :     0.014409
      dxy     :     0.017826
 14 C s       :     3.235553  s :     3.235553
      pz      :     0.868211  p :     2.861414
      px      :     0.921388
      py      :     1.071814
      dz2     :     0.007446  d :     0.033302
      dxz     :     0.012303
      dyz     :     0.003702
      dx2y2   :     0.004502
      dxy     :     0.005348
 15 C s       :     3.220393  s :     3.220393
      pz      :     0.891315  p :     2.705800
      px      :     0.856400
      py      :     0.958085
      dz2     :     0.008011  d :     0.035800
      dxz     :     0.011934
      dyz     :     0.003678
      dx2y2   :     0.004953
      dxy     :     0.007224
 16 H s       :     0.966650  s :     0.966650
      pz      :     0.012746  p :     0.023203
      px      :     0.005907
      py      :     0.004550
 17 H s       :     0.974711  s :     0.974711
      pz      :     0.011782  p :     0.024002
      px      :     0.006910
      py      :     0.005309
 18 O s       :     3.729705  s :     3.729705
      pz      :     1.551354  p :     4.591994
      px      :     1.234752
      py      :     1.805888
      dz2     :     0.004280  d :     0.017091
      dxz     :     0.004900
      dyz     :     0.001820
      dx2y2   :     0.003529
      dxy     :     0.002562
 19 C s       :     3.022580  s :     3.022580
      pz      :     0.830041  p :     2.789951
      px      :     0.930741
      py      :     1.029170
      dz2     :     0.008855  d :     0.054208
      dxz     :     0.015416
      dyz     :     0.015452
      dx2y2   :     0.011022
      dxy     :     0.003463
 20 H s       :     0.918958  s :     0.918958
      pz      :     0.004291  p :     0.021892
      px      :     0.012440
      py      :     0.005161
 21 H s       :     0.937260  s :     0.937260
      pz      :     0.006964  p :     0.022701
      px      :     0.003886
      py      :     0.011851
 22 H s       :     0.936984  s :     0.936984
      pz      :     0.007005  p :     0.022680
      px      :     0.003914
      py      :     0.011761
 23 H s       :     0.960637  s :     0.960637
      pz      :     0.012573  p :     0.023385
      px      :     0.006047
      py      :     0.004765
 24 H s       :     0.964406  s :     0.964406
      pz      :     0.011496  p :     0.023324
      px      :     0.007360
      py      :     0.004467
 25 H s       :     0.902591  s :     0.902591
      pz      :     0.004827  p :     0.023977
      px      :     0.016029
      py      :     0.003121
 26 H s       :     0.921552  s :     0.921552
      pz      :     0.006700  p :     0.024138
      px      :     0.012656
      py      :     0.004781
 27 H s       :     0.920241  s :     0.920241
      pz      :     0.005970  p :     0.023783
      px      :     0.009284
      py      :     0.008529
 28 H s       :     0.923142  s :     0.923142
      pz      :     0.005584  p :     0.024161
      px      :     0.013759
      py      :     0.004818
 29 H s       :     0.921521  s :     0.921521
      pz      :     0.006931  p :     0.024068
      px      :     0.008499
      py      :     0.008638


                     *******************************
                     * LOEWDIN POPULATION ANALYSIS *
                     *******************************

----------------------
LOEWDIN ATOMIC CHARGES
----------------------
   0 C :   -0.052436
   1 C :   -0.052295
   2 C :    0.031821
   3 N :   -0.036948
   4 C :    0.075485
   5 O :   -0.226153
   6 C :   -0.080135
   7 H :    0.039922
   8 H :    0.040992
   9 H :    0.040925
  10 C :   -0.015081
  11 C :   -0.013778
  12 C :   -0.045675
  13 C :    0.062075
  14 C :   -0.080187
  15 C :   -0.011623
  16 H :    0.036816
  17 H :    0.031332
  18 O :   -0.107947
  19 C :    0.073932
  20 H :    0.032120
  21 H :    0.016986
  22 H :    0.017124
  23 H :    0.038161
  24 H :    0.037209
  25 H :    0.035141
  26 H :    0.027659
  27 H :    0.029257
  28 H :    0.026795
  29 H :    0.028506

-------------------------------
LOEWDIN REDUCED ORBITAL CHARGES
-------------------------------
  0 C s       :     2.817499  s :     2.817499
      pz      :     1.001637  p :     3.143355
      px      :     1.068753
      py      :     1.072964
      dz2     :     0.023143  d :     0.091582
      dxz     :     0.019687
      dyz     :     0.022173
      dx2y2   :     0.013084
      dxy     :     0.013495
  1 C s       :     2.817587  s :     2.817587
      pz      :     0.995430  p :     3.143165
      px      :     1.075298
      py      :     1.072437
      dz2     :     0.023031  d :     0.091543
      dxz     :     0.021077
      dyz     :     0.021944
      dx2y2   :     0.011791
      dxy     :     0.013700
  2 C s       :     2.801773  s :     2.801773
      pz      :     1.101850  p :     3.023863
      px      :     1.039403
      py      :     0.882610
      dz2     :     0.021207  d :     0.142544
      dxz     :     0.009723
      dyz     :     0.041693
      dx2y2   :     0.035417
      dxy     :     0.034503
  3 N s       :     3.050862  s :     3.050862
      pz      :     1.585904  p :     3.919157
      px      :     1.158533
      py      :     1.174720
      dz2     :     0.005025  d :     0.066929
      dxz     :     0.006434
      dyz     :     0.007972
      dx2y2   :     0.022704
      dxy     :     0.024793
  4 C s       :     2.836811  s :     2.836811
      pz      :     0.810821  p :     2.814303
      px      :     1.020926
      py      :     0.982555
      dz2     :     0.014632  d :     0.273401
      dxz     :     0.052332
      dyz     :     0.021631
      dx2y2   :     0.061042
      dxy     :     0.123763
  5 O s       :     3.540115  s :     3.540115
      pz      :     1.433179  p :     4.655167
      px      :     1.450941
      py      :     1.771047
      dz2     :     0.004239  d :     0.030871
      dxz     :     0.007182
      dyz     :     0.000043
      dx2y2   :     0.013290
      dxy     :     0.006117
  6 C s       :     2.835359  s :     2.835359
      pz      :     1.070510  p :     3.177448
      px      :     1.065964
      py      :     1.040974
      dz2     :     0.014462  d :     0.067329
      dxz     :     0.019188
      dyz     :     0.002699
      dx2y2   :     0.008518
      dxy     :     0.022461
  7 H s       :     0.890348  s :     0.890348
      pz      :     0.030193  p :     0.069730
      px      :     0.025424
      py      :     0.014113
  8 H s       :     0.889338  s :     0.889338
      pz      :     0.033189  p :     0.069670
      px      :     0.022426
      py      :     0.014055
  9 H s       :     0.891505  s :     0.891505
      pz      :     0.012812  p :     0.067570
      px      :     0.024581
      py      :     0.030177
 10 C s       :     2.825914  s :     2.825914
      pz      :     1.095556  p :     3.044381
      px      :     0.927444
      py      :     1.021382
      dz2     :     0.036208  d :     0.144786
      dxz     :     0.057362
      dyz     :     0.014239
      dx2y2   :     0.024411
      dxy     :     0.012566
 11 C s       :     2.856001  s :     2.856001
      pz      :     1.048295  p :     3.063604
      px      :     1.063398
      py      :     0.951912
      dz2     :     0.022888  d :     0.094173
      dxz     :     0.035693
      dyz     :     0.008599
      dx2y2   :     0.013434
      dxy     :     0.013559
 12 C s       :     2.852777  s :     2.852777
      pz      :     1.039952  p :     3.104519
      px      :     1.060180
      py      :     1.004387
      dz2     :     0.020955  d :     0.088379
      dxz     :     0.036488
      dyz     :     0.005691
      dx2y2   :     0.013238
      dxy     :     0.012007
 13 C s       :     2.833163  s :     2.833163
      pz      :     1.104565  p :     2.928525
      px      :     0.879624
      py      :     0.944336
      dz2     :     0.038613  d :     0.176237
      dxz     :     0.056390
      dyz     :     0.015253
      dx2y2   :     0.031671
      dxy     :     0.034309
 14 C s       :     2.848690  s :     2.848690
      pz      :     1.041085  p :     3.142047
      px      :     1.060037
      py      :     1.040925
      dz2     :     0.022735  d :     0.089450
      dxz     :     0.036106
      dyz     :     0.006807
      dx2y2   :     0.012797
      dxy     :     0.011005
 15 C s       :     2.855098  s :     2.855098
      pz      :     1.048939  p :     3.062147
      px      :     1.060355
      py      :     0.952852
      dz2     :     0.022886  d :     0.094378
      dxz     :     0.034746
      dyz     :     0.007243
      dx2y2   :     0.014180
      dxy     :     0.015323
 16 H s       :     0.893920  s :     0.893920
      pz      :     0.037397  p :     0.069264
      px      :     0.017655
      py      :     0.014212
 17 H s       :     0.896203  s :     0.896203
      pz      :     0.034407  p :     0.072466
      px      :     0.020708
      py      :     0.017350
 18 O s       :     3.427058  s :     3.427058
      pz      :     1.573973  p :     4.649174
      px      :     1.289869
      py      :     1.785332
      dz2     :     0.007375  d :     0.031715
      dxz     :     0.010050
      dyz     :     0.002259
      dx2y2   :     0.007471
      dxy     :     0.004560
 19 C s       :     2.839897  s :     2.839897
      pz      :     0.911751  p :     2.961347
      px      :     0.970355
      py      :     1.079241
      dz2     :     0.019144  d :     0.124824
      dxz     :     0.033513
      dyz     :     0.039554
      dx2y2   :     0.026587
      dxy     :     0.006025
 20 H s       :     0.903895  s :     0.903895
      pz      :     0.013399  p :     0.063985
      px      :     0.037798
      py      :     0.012788
 21 H s       :     0.917422  s :     0.917422
      pz      :     0.020643  p :     0.065593
      px      :     0.011311
      py      :     0.033639
 22 H s       :     0.917300  s :     0.917300
      pz      :     0.020816  p :     0.065577
      px      :     0.011417
      py      :     0.033343
 23 H s       :     0.890840  s :     0.890840
      pz      :     0.037109  p :     0.070999
      px      :     0.018220
      py      :     0.015670
 24 H s       :     0.893429  s :     0.893429
      pz      :     0.034017  p :     0.069362
      px      :     0.021280
      py      :     0.014065
 25 H s       :     0.888058  s :     0.888058
      pz      :     0.016626  p :     0.076801
      px      :     0.047269
      py      :     0.012906
 26 H s       :     0.899325  s :     0.899325
      pz      :     0.020615  p :     0.073016
      px      :     0.036158
      py      :     0.016243
 27 H s       :     0.899457  s :     0.899457
      pz      :     0.018529  p :     0.071286
      px      :     0.026892
      py      :     0.025865
 28 H s       :     0.900169  s :     0.900169
      pz      :     0.017704  p :     0.073035
      px      :     0.039015
      py      :     0.016316
 29 H s       :     0.900099  s :     0.900099
      pz      :     0.021095  p :     0.071395
      px      :     0.024393
      py      :     0.025907


                      *****************************
                      * MAYER POPULATION ANALYSIS *
                      *****************************

  NA   - Mulliken gross atomic population
  ZA   - Total nuclear charge
  QA   - Mulliken gross atomic charge
  VA   - Mayer's total valence
  BVA  - Mayer's bonded valence
  FA   - Mayer's free valence

  ATOM       NA         ZA         QA         VA         BVA        FA
  0 C      6.0726     6.0000    -0.0726     3.9246     3.9246     0.0000
  1 C      6.0712     6.0000    -0.0712     3.9240     3.9240     0.0000
  2 C      5.9741     6.0000     0.0259     3.9319     3.9319     0.0000
  3 N      7.2407     7.0000    -0.2407     3.0208     3.0208    -0.0000
  4 C      5.9251     6.0000     0.0749     4.3202     4.3202    -0.0000
  5 O      8.2776     8.0000    -0.2776     2.2480     2.2480     0.0000
  6 C      5.9572     6.0000     0.0428     3.8709     3.8709     0.0000
  7 H      0.9604     1.0000     0.0396     1.0064     1.0064     0.0000
  8 H      0.9582     1.0000     0.0418     1.0063     1.0063     0.0000
  9 H      0.9455     1.0000     0.0545     1.0131     1.0131     0.0000
 10 C      6.0287     6.0000    -0.0287     4.0066     4.0066     0.0000
 11 C      5.9647     6.0000     0.0353     3.8520     3.8520     0.0000
 12 C      6.0545     6.0000    -0.0545     3.8413     3.8413     0.0000
 13 C      5.7415     6.0000     0.2585     3.8536     3.8536    -0.0000
 14 C      6.1303     6.0000    -0.1303     3.8095     3.8095     0.0000
 15 C      5.9620     6.0000     0.0380     3.8808     3.8808     0.0000
 16 H      0.9899     1.0000     0.0101     0.9968     0.9968     0.0000
 17 H      0.9987     1.0000     0.0013     1.0015     1.0015     0.0000
 18 O      8.3388     8.0000    -0.3388     2.1740     2.1740     0.0000
 19 C      5.8667     6.0000     0.1333     3.9177     3.9177     0.0000
 20 H      0.9409     1.0000     0.0591     0.9920     0.9920     0.0000
 21 H      0.9600     1.0000     0.0400     0.9856     0.9856    -0.0000
 22 H      0.9597     1.0000     0.0403     0.9856     0.9856    -0.0000
 23 H      0.9840     1.0000     0.0160     1.0012     1.0012     0.0000
 24 H      0.9877     1.0000     0.0123     0.9967     0.9967    -0.0000
 25 H      0.9266     1.0000     0.0734     1.0343     1.0343    -0.0000
 26 H      0.9457     1.0000     0.0543     1.0018     1.0018    -0.0000
 27 H      0.9440     1.0000     0.0560     0.9849     0.9849     0.0000
 28 H      0.9473     1.0000     0.0527     1.0019     1.0019     0.0000
 29 H      0.9456     1.0000     0.0544     0.9851     0.9851     0.0000

  Mayer bond orders larger than 0.100000
B(  0-C ,  1-C ) :   0.9973 B(  0-C ,  2-C ) :   0.9826 B(  0-C , 28-H ) :   0.9524 
B(  0-C , 29-H ) :   0.9612 B(  1-C ,  2-C ) :   0.9834 B(  1-C , 26-H ) :   0.9520 
B(  1-C , 27-H ) :   0.9609 B(  2-C ,  3-N ) :   0.9262 B(  2-C , 25-H ) :   0.9471 
B(  3-N ,  4-C ) :   1.1244 B(  3-N , 10-C ) :   0.9462 B(  4-C ,  5-O ) :   2.0470 
B(  4-C ,  6-C ) :   1.0263 B(  6-C ,  7-H ) :   0.9443 B(  6-C ,  8-H ) :   0.9439 
B(  6-C ,  9-H ) :   0.9597 B( 10-C , 11-C ) :   1.3867 B( 10-C , 15-C ) :   1.4409 
B( 11-C , 12-C ) :   1.3853 B( 11-C , 24-H ) :   0.9956 B( 12-C , 13-C ) :   1.3510 
B( 12-C , 23-H ) :   0.9967 B( 13-C , 14-C ) :   1.3152 B( 13-C , 18-O ) :   1.1288 
B( 14-C , 15-C ) :   1.3366 B( 14-C , 17-H ) :   0.9971 B( 15-C , 16-H ) :   0.9922 
B( 18-O , 19-C ) :   0.9498 B( 19-C , 20-H ) :   0.9809 B( 19-C , 21-H ) :   0.9710 
B( 19-C , 22-H ) :   0.9711 

-------
TIMINGS
-------

Total SCF time: 0 days 0 hours 5 min 48 sec 

Total time                  ....     348.749 sec
Sum of individual times     ....     348.435 sec  ( 99.9%)

Fock matrix formation       ....     344.516 sec  ( 98.8%)
  XC integration            ....      11.542 sec  (  3.4% of F)
    Basis function eval.    ....       3.442 sec  ( 29.8% of XC)
    Density eval.           ....       2.237 sec  ( 19.4% of XC)
    XC-Functional eval.     ....       2.577 sec  ( 22.3% of XC)
    XC-Potential eval.      ....       2.988 sec  ( 25.9% of XC)
Diagonalization             ....       0.087 sec  (  0.0%)
Density matrix formation    ....       0.024 sec  (  0.0%)
Population analysis         ....       0.010 sec  (  0.0%)
Initial guess               ....       0.988 sec  (  0.3%)
Orbital Transformation      ....       0.000 sec  (  0.0%)
Orbital Orthonormalization  ....       0.000 sec  (  0.0%)
DIIS solution               ....       0.033 sec  (  0.0%)
SOSCF solution              ....       0.062 sec  (  0.0%)
Grid generation             ....       2.716 sec  (  0.8%)


-------------------------------------------------------------------------------
                          DFT DISPERSION CORRECTION                            
                                                                               
                              DFTD3 V3.1  Rev 1                                
                              USING zero damping                               
-------------------------------------------------------------------------------
The omegaB97X-D3 functional is recognized. Fit by Chai et al.
Active option DFTDOPT                   ...         3   

molecular C6(AA) [au] = 8696.918549 


            DFT-D V3
 parameters
 s6 scaling factor         :     1.0000 
 rs6 scaling factor        :     1.2810 
 s8 scaling factor         :     1.0000 
 rs8 scaling factor        :     1.0940 
 Damping factor alpha6     :    14.0000 
 Damping factor alpha8     :    16.0000 
 ad hoc parameters k1-k3   :    16.0000     1.3333    -4.0000 

 Edisp/kcal,au: -7.927552852993  -0.012633358276 
 E6   /kcal   :  -3.668576677 
 E8   /kcal   :  -4.258976176 
 % E8         :  53.723718465 

-------------------------   ----------------
Dispersion correction           -0.012633358
-------------------------   ----------------


-------------------------   --------------------
FINAL SINGLE POINT ENERGY      -670.812575220230
-------------------------   --------------------

------------------------------------------------------------------------------
                         ORCA SCF GRADIENT CALCULATION
------------------------------------------------------------------------------

Gradient of the Kohn-Sham DFT energy:
Kohn-Sham wavefunction type      ... RKS
Hartree-Fock exchange scaling    ...    0.196
Number of operators              ...    1
Number of atoms                  ...   30
Basis set dimensions             ...  285
Integral neglect threshold       ... 2.5e-11
Integral primitive cutoff        ... 2.5e-12

Nuclear repulsion gradient       ... done
One Electron Gradient            ... done
Pre-screening matrix             ... done
Starting the two electron gradient:
Two electron gradient done
Exchange-correlation gradient    ... done
Dispersion correction            ... done

------------------
[...]
      dyz     :     0.003162
      dx2y2   :     0.004524
      dxy     :     0.005657
 13 C s       :     2.942067  s :     2.942067
      pz      :     1.006378  p :     2.733611
      px      :     0.775583
      py      :     0.951650
      dz2     :     0.015404  d :     0.077659
      dxz     :     0.021793
      dyz     :     0.007534
      dx2y2   :     0.014668
      dxy     :     0.018259
 14 C s       :     3.233191  s :     3.233191
      pz      :     0.871895  p :     2.869597
      px      :     0.921785
      py      :     1.075916
      dz2     :     0.007290  d :     0.032326
      dxz     :     0.011840
      dyz     :     0.003626
      dx2y2   :     0.004454
      dxy     :     0.005116
 15 C s       :     3.226940  s :     3.226940
      pz      :     0.899317  p :     2.714363
      px      :     0.858662
      py      :     0.956384
      dz2     :     0.007773  d :     0.035009
      dxz     :     0.011628
      dyz     :     0.003607
      dx2y2   :     0.004887
      dxy     :     0.007114
 16 H s       :     0.960354  s :     0.960354
      pz      :     0.012537  p :     0.022644
      px      :     0.005725
      py      :     0.004382
 17 H s       :     0.966540  s :     0.966540
      pz      :     0.011532  p :     0.023522
      px      :     0.006798
      py      :     0.005192
 18 O s       :     3.721871  s :     3.721871
      pz      :     1.552396  p :     4.587835
      px      :     1.234714
      py      :     1.800726
      dz2     :     0.004338  d :     0.017369
      dxz     :     0.004935
      dyz     :     0.001845
      dx2y2   :     0.003575
      dxy     :     0.002676
 19 C s       :     3.033419  s :     3.033419
      pz      :     0.828124  p :     2.790655
      px      :     0.933413
      py      :     1.029118
      dz2     :     0.009093  d :     0.054355
      dxz     :     0.015387
      dyz     :     0.015387
      dx2y2   :     0.011006
      dxy     :     0.003483
 20 H s       :     0.916591  s :     0.916591
      pz      :     0.003995  p :     0.021607
      px      :     0.012540
      py      :     0.005071
 21 H s       :     0.935367  s :     0.935367
      pz      :     0.006911  p :     0.022293
      px      :     0.003808
      py      :     0.011575
 22 H s       :     0.935097  s :     0.935097
      pz      :     0.006909  p :     0.022296
      px      :     0.003804
      py      :     0.011583
 23 H s       :     0.952861  s :     0.952861
      pz      :     0.012378  p :     0.022777
      px      :     0.005787
      py      :     0.004612
 24 H s       :     0.957775  s :     0.957775
      pz      :     0.011204  p :     0.022772
      px      :     0.007265
      py      :     0.004303
 25 H s       :     0.897897  s :     0.897897
      pz      :     0.004698  p :     0.023673
      px      :     0.015634
      py      :     0.003340
 26 H s       :     0.917093  s :     0.917093
      pz      :     0.006247  p :     0.023256
      px      :     0.012496
      py      :     0.004514
 27 H s       :     0.915487  s :     0.915487
      pz      :     0.005856  p :     0.022981
      px      :     0.009295
      py      :     0.007830
 28 H s       :     0.919563  s :     0.919563
      pz      :     0.005324  p :     0.023214
      px      :     0.013371
      py      :     0.004520
 29 H s       :     0.916523  s :     0.916523
      pz      :     0.006676  p :     0.023223
      px      :     0.008634
      py      :     0.007913


                     *******************************
                     * LOEWDIN POPULATION ANALYSIS *
                     *******************************

----------------------
LOEWDIN ATOMIC CHARGES
----------------------
   0 C :   -0.057773
   1 C :   -0.057769
   2 C :    0.029151
   3 N :   -0.049420
   4 C :    0.083419
   5 O :   -0.220969
   6 C :   -0.085508
   7 H :    0.042258
   8 H :    0.043178
   9 H :    0.043521
  10 C :   -0.017261
  11 C :   -0.015312
  12 C :   -0.050871
  13 C :    0.058691
  14 C :   -0.085105
  15 C :   -0.013531
  16 H :    0.038930
  17 H :    0.033919
  18 O :   -0.099709
  19 C :    0.069278
  20 H :    0.032980
  21 H :    0.018071
  22 H :    0.018183
  23 H :    0.041260
  24 H :    0.039439
  25 H :    0.037364
  26 H :    0.030707
  27 H :    0.031843
  28 H :    0.029855
  29 H :    0.031180

-------------------------------
LOEWDIN REDUCED ORBITAL CHARGES
-------------------------------
  0 C s       :     2.826768  s :     2.826768
      pz      :     0.999310  p :     3.141185
      px      :     1.066421
      py      :     1.075455
      dz2     :     0.023001  d :     0.089820
      dxz     :     0.019005
      dyz     :     0.021829
      dx2y2   :     0.013695
      dxy     :     0.012290
  1 C s       :     2.826878  s :     2.826878
      pz      :     0.994690  p :     3.141158
      px      :     1.071385
      py      :     1.075083
      dz2     :     0.022814  d :     0.089733
      dxz     :     0.020127
      dyz     :     0.021611
      dx2y2   :     0.012761
      dxy     :     0.012420
  2 C s       :     2.806026  s :     2.806026
      pz      :     1.101501  p :     3.024046
      px      :     1.036571
      py      :     0.885974
      dz2     :     0.021138  d :     0.140777
      dxz     :     0.009128
      dyz     :     0.041909
      dx2y2   :     0.034575
      dxy     :     0.034027
  3 N s       :     3.060736  s :     3.060736
      pz      :     1.594984  p :     3.924757
      px      :     1.156337
      py      :     1.173436
      dz2     :     0.004851  d :     0.063926
      dxz     :     0.006157
      dyz     :     0.007266
      dx2y2   :     0.021456
      dxy     :     0.024197
  4 C s       :     2.843850  s :     2.843850
      pz      :     0.808587  p :     2.805678
      px      :     1.018569
      py      :     0.978522
      dz2     :     0.014326  d :     0.267053
      dxz     :     0.050760
      dyz     :     0.020427
      dx2y2   :     0.060436
      dxy     :     0.121103
  5 O s       :     3.540540  s :     3.540540
      pz      :     1.427086  p :     4.649528
      px      :     1.452388
      py      :     1.770054
      dz2     :     0.004248  d :     0.030900
      dxz     :     0.007181
      dyz     :     0.000039
      dx2y2   :     0.013325
      dxy     :     0.006108
  6 C s       :     2.844342  s :     2.844342
      pz      :     1.072099  p :     3.175380
      px      :     1.063903
      py      :     1.039379
      dz2     :     0.013562  d :     0.065786
      dxz     :     0.018717
      dyz     :     0.002778
      dx2y2   :     0.008743
      dxy     :     0.021986
  7 H s       :     0.890133  s :     0.890133
      pz      :     0.029557  p :     0.067609
      px      :     0.024735
      py      :     0.013317
  8 H s       :     0.889216  s :     0.889216
      pz      :     0.032213  p :     0.067606
      px      :     0.022127
      py      :     0.013267
  9 H s       :     0.890202  s :     0.890202
      pz      :     0.012338  p :     0.066277
      px      :     0.025345
      py      :     0.028594
 10 C s       :     2.830463  s :     2.830463
      pz      :     1.092710  p :     3.044774
      px      :     0.926984
      py      :     1.025080
      dz2     :     0.035230  d :     0.142024
      dxz     :     0.057049
      dyz     :     0.013672
      dx2y2   :     0.023793
      dxy     :     0.012280
 11 C s       :     2.863817  s :     2.863817
      pz      :     1.047143  p :     3.060039
      px      :     1.061461
      py      :     0.951434
      dz2     :     0.022125  d :     0.091455
      dxz     :     0.034664
      dyz     :     0.008283
      dx2y2   :     0.013140
      dxy     :     0.013242
 12 C s       :     2.859438  s :     2.859438
      pz      :     1.037867  p :     3.105320
      px      :     1.058294
      py      :     1.009159
      dz2     :     0.020418  d :     0.086113
      dxz     :     0.035555
      dyz     :     0.005542
      dx2y2   :     0.013017
      dxy     :     0.011580
 13 C s       :     2.834698  s :     2.834698
      pz      :     1.103115  p :     2.928602
      px      :     0.882901
      py      :     0.942586
      dz2     :     0.038593  d :     0.178008
      dxz     :     0.056779
      dyz     :     0.015026
      dx2y2   :     0.032298
      dxy     :     0.035311
 14 C s       :     2.855920  s :     2.855920
      pz      :     1.039393  p :     3.142620
      px      :     1.057268
      py      :     1.045959
      dz2     :     0.022219  d :     0.086564
      dxz     :     0.034773
      dyz     :     0.006611
      dx2y2   :     0.012546
      dxy     :     0.010415
 15 C s       :     2.862837  s :     2.862837
      pz      :     1.048367  p :     3.058933
      px      :     1.058528
      py      :     0.952037
      dz2     :     0.022183  d :     0.091761
      dxz     :     0.033754
      dyz     :     0.006987
      dx2y2   :     0.013859
      dxy     :     0.014979
 16 H s       :     0.893862  s :     0.893862
      pz      :     0.036708  p :     0.067207
      px      :     0.017021
      py      :     0.013478
 17 H s       :     0.895426  s :     0.895426
      pz      :     0.033643  p :     0.070655
      px      :     0.020269
      py      :     0.016744
 18 O s       :     3.419254  s :     3.419254
      pz      :     1.575015  p :     4.647950
      px      :     1.293545
      py      :     1.779390
      dz2     :     0.007547  d :     0.032505
      dxz     :     0.010264
      dyz     :     0.002303
      dx2y2   :     0.007616
      dxy     :     0.004776
 19 C s       :     2.844845  s :     2.844845
      pz      :     0.910038  p :     2.960902
      px      :     0.972511
      py      :     1.078352
      dz2     :     0.019739  d :     0.124975
      dxz     :     0.033189
      dyz     :     0.039482
      dx2y2   :     0.026528
      dxy     :     0.006037
 20 H s       :     0.904017  s :     0.904017
      pz      :     0.012503  p :     0.063003
      px      :     0.038044
      py      :     0.012456
 21 H s       :     0.917582  s :     0.917582
      pz      :     0.020482  p :     0.064348
      px      :     0.010954
      py      :     0.032912
 22 H s       :     0.917462  s :     0.917462
      pz      :     0.020476  p :     0.064356
      px      :     0.010945
      py      :     0.032934
 23 H s       :     0.889919  s :     0.889919
      pz      :     0.036474  p :     0.068822
      px      :     0.017386
      py      :     0.014961
 24 H s       :     0.893296  s :     0.893296
      pz      :     0.033086  p :     0.067265
      px      :     0.020835
      py      :     0.013345
 25 H s       :     0.886857  s :     0.886857
      pz      :     0.016017  p :     0.075779
      px      :     0.046438
      py      :     0.013325
 26 H s       :     0.899042  s :     0.899042
      pz      :     0.019168  p :     0.070251
      px      :     0.035855
      py      :     0.015228
 27 H s       :     0.899313  s :     0.899313
      pz      :     0.018095  p :     0.068844
      px      :     0.026943
      py      :     0.023806
 28 H s       :     0.900020  s :     0.900020
      pz      :     0.016748  p :     0.070126
      px      :     0.038145
      py      :     0.015233
 29 H s       :     0.899885  s :     0.899885
      pz      :     0.020279  p :     0.068934
      px      :     0.024784
      py      :     0.023871


                      *****************************
                      * MAYER POPULATION ANALYSIS *
                      *****************************

  NA   - Mulliken gross atomic population
  ZA   - Total nuclear charge
  QA   - Mulliken gross atomic charge
  VA   - Mayer's total valence
  BVA  - Mayer's bonded valence
  FA   - Mayer's free valence

  ATOM       NA         ZA         QA         VA         BVA        FA
  0 C      6.0868     6.0000    -0.0868     3.9223     3.9223     0.0000
  1 C      6.0866     6.0000    -0.0866     3.9219     3.9219    -0.0000
  2 C      5.9707     6.0000     0.0293     3.9227     3.9227    -0.0000
  3 N      7.2642     7.0000    -0.2642     3.0175     3.0175    -0.0000
  4 C      5.9040     6.0000     0.0960     4.2954     4.2954     0.0000
  5 O      8.2745     8.0000    -0.2745     2.2493     2.2493     0.0000
  6 C      5.9842     6.0000     0.0158     3.8758     3.8758    -0.0000
  7 H      0.9540     1.0000     0.0460     1.0032     1.0032    -0.0000
  8 H      0.9518     1.0000     0.0482     1.0031     1.0031    -0.0000
  9 H      0.9400     1.0000     0.0600     1.0130     1.0130    -0.0000
 10 C      6.0096     6.0000    -0.0096     3.9862     3.9862    -0.0000
 11 C      5.9778     6.0000     0.0222     3.8585     3.8585    -0.0000
 12 C      6.0601     6.0000    -0.0601     3.8367     3.8367    -0.0000
 13 C      5.7533     6.0000     0.2467     3.8690     3.8690     0.0000
 14 C      6.1351     6.0000    -0.1351     3.8100     3.8100    -0.0000
 15 C      5.9763     6.0000     0.0237     3.8874     3.8874     0.0000
 16 H      0.9830     1.0000     0.0170     0.9967     0.9967    -0.0000
 17 H      0.9901     1.0000     0.0099     1.0013     1.0013    -0.0000
 18 O      8.3271     8.0000    -0.3271     2.1859     2.1859     0.0000
 19 C      5.8784     6.0000     0.1216     3.9182     3.9182    -0.0000
 20 H      0.9382     1.0000     0.0618     0.9902     0.9902    -0.0000
 21 H      0.9577     1.0000     0.0423     0.9847     0.9847     0.0000
 22 H      0.9574     1.0000     0.0426     0.9847     0.9847     0.0000
 23 H      0.9756     1.0000     0.0244     1.0000     1.0000     0.0000
 24 H      0.9805     1.0000     0.0195     0.9964     0.9964     0.0000
 25 H      0.9216     1.0000     0.0784     1.0333     1.0333    -0.0000
 26 H      0.9403     1.0000     0.0597     0.9983     0.9983    -0.0000
 27 H      0.9385     1.0000     0.0615     0.9835     0.9835    -0.0000
 28 H      0.9428     1.0000     0.0572     0.9987     0.9987     0.0000
 29 H      0.9397     1.0000     0.0603     0.9837     0.9837    -0.0000

  Mayer bond orders larger than 0.100000
B(  0-C ,  1-C ) :   0.9939 B(  0-C ,  2-C ) :   0.9848 B(  0-C , 28-H ) :   0.9528 
B(  0-C , 29-H ) :   0.9610 B(  1-C ,  2-C ) :   0.9853 B(  1-C , 26-H ) :   0.9523 
B(  1-C , 27-H ) :   0.9606 B(  2-C ,  3-N ) :   0.9225 B(  2-C , 25-H ) :   0.9433 
B(  3-N ,  4-C ) :   1.1077 B(  3-N , 10-C ) :   0.9474 B(  4-C ,  5-O ) :   2.0454 
B(  4-C ,  6-C ) :   1.0277 B(  6-C ,  7-H ) :   0.9468 B(  6-C ,  8-H ) :   0.9463 
B(  6-C ,  9-H ) :   0.9607 B( 10-C , 11-C ) :   1.3831 B( 10-C , 15-C ) :   1.4439 
B( 11-C , 12-C ) :   1.3894 B( 11-C , 24-H ) :   0.9908 B( 12-C , 13-C ) :   1.3474 
B( 12-C , 23-H ) :   0.9927 B( 13-C , 14-C ) :   1.3194 B( 13-C , 18-O ) :   1.1346 
B( 14-C , 15-C ) :   1.3356 B( 14-C , 17-H ) :   0.9918 B( 15-C , 16-H ) :   0.9882 
B( 18-O , 19-C ) :   0.9528 B( 19-C , 20-H ) :   0.9800 B( 19-C , 21-H ) :   0.9696 
B( 19-C , 22-H ) :   0.9697 

-------
TIMINGS
-------

Total SCF time: 0 days 0 hours 2 min 25 sec 

Total time                  ....     145.223 sec
Sum of individual times     ....     144.958 sec  ( 99.8%)

Fock matrix formation       ....     142.138 sec  ( 97.9%)
  XC integration            ....       6.419 sec  (  4.5% of F)
    Basis function eval.    ....       1.944 sec  ( 30.3% of XC)
    Density eval.           ....       1.278 sec  ( 19.9% of XC)
    XC-Functional eval.     ....       1.481 sec  ( 23.1% of XC)
    XC-Potential eval.      ....       1.539 sec  ( 24.0% of XC)
Diagonalization             ....       0.013 sec  (  0.0%)
Density matrix formation    ....       0.012 sec  (  0.0%)
Population analysis         ....       0.010 sec  (  0.0%)
Initial guess               ....       0.012 sec  (  0.0%)
Orbital Transformation      ....       0.000 sec  (  0.0%)
Orbital Orthonormalization  ....       0.009 sec  (  0.0%)
DIIS solution               ....       0.004 sec  (  0.0%)
SOSCF solution              ....       0.049 sec  (  0.0%)
Grid generation             ....       2.720 sec  (  1.9%)


-------------------------------------------------------------------------------
                          DFT DISPERSION CORRECTION                            
                                                                               
                              DFTD3 V3.1  Rev 1                                
                              USING zero damping                               
-------------------------------------------------------------------------------
The omegaB97X-D3 functional is recognized. Fit by Chai et al.
Active option DFTDOPT                   ...         3   

molecular C6(AA) [au] = 8707.884206 


            DFT-D V3
 parameters
 s6 scaling factor         :     1.0000 
 rs6 scaling factor        :     1.2810 
 s8 scaling factor         :     1.0000 
 rs8 scaling factor        :     1.0940 
 Damping factor alpha6     :    14.0000 
 Damping factor alpha8     :    16.0000 
 ad hoc parameters k1-k3   :    16.0000     1.3333    -4.0000 

 Edisp/kcal,au: -7.851081088851  -0.012511492776 
 E6   /kcal   :  -3.639474889 
 E8   /kcal   :  -4.211606200 
 % E8         :  53.643646685 

-------------------------   ----------------
Dispersion correction           -0.012511493
-------------------------   ----------------


-------------------------   --------------------
FINAL SINGLE POINT ENERGY      -670.815652847911
-------------------------   --------------------

                                *** OPTIMIZATION RUN DONE ***

                            ***************************************
                            *     ORCA property calculations      *
                            ***************************************

                                    ---------------------
                                    Active property flags
                                    ---------------------
   (+) Dipole Moment


------------------------------------------------------------------------------
                       ORCA ELECTRIC PROPERTIES CALCULATION
------------------------------------------------------------------------------

Dipole Moment Calculation                       ... on
Quadrupole Moment Calculation                   ... off
Polarizability Calculation                      ... off
GBWName                                         ... 011506687.gbw
Electron density file                           ... 011506687.scfp
The origin for moment calculation is the CENTER OF MASS  = (-0.017153, -0.003605  0.003730)

-------------
DIPOLE MOMENT
-------------
                                X             Y             Z
Electronic contribution:      2.25966       2.03704       2.20166
Nuclear contribution   :     -4.15600      -2.29041      -2.57767
                        -----------------------------------------
Total Dipole Moment    :     -1.89634      -0.25337      -0.37601
                        -----------------------------------------
Magnitude (a.u.)       :      1.94979
Magnitude (Debye)      :      4.95598



--------------------
Rotational spectrum 
--------------------
 
Rotational constants in cm-1:     0.037051     0.011773     0.010295 
Rotational constants in MHz :  1110.749872   352.951242   308.636203 

 Dipole components along the rotational axes: 
x,y,z [a.u.] :    -1.892409     0.278016    -0.378403 
x,y,z [Debye]:    -4.810122     0.706662    -0.961825 

 

Timings for individual modules:

Sum of individual times         ...     2046.924 sec (=  34.115 min)
GTO integral calculation        ...        2.559 sec (=   0.043 min)   0.1 %
SCF iterations                  ...     1349.673 sec (=  22.495 min)  65.9 %
SCF Gradient evaluation         ...      693.432 sec (=  11.557 min)  33.9 %
Geometry relaxation             ...        1.260 sec (=   0.021 min)   0.1 %
                             ****ORCA TERMINATED NORMALLY****
TOTAL RUN TIME: 0 days 0 hours 34 minutes 8 seconds 285 msec
