
                                 *****************
                                 * O   R   C   A *
                                 *****************

           --- An Ab Initio, DFT and Semiempirical electronic structure package ---

                  #######################################################
                  #                        -***-                        #
                  #          Department of theory and spectroscopy      #
                  #               Directorship: Frank Neese             #
                  #        Max Planck Institute fuer Kohlenforschung    #
                  #                Kaiser Wilhelm Platz 1               #
                  #                 D-45470 Muelheim/Ruhr               #
                  #                      Germany                        #
                  #                                                     #
                  #                  All rights reserved                #
                  #                        -***-                        #
                  #######################################################


                         Program Version 4.2.0 -  RELEASE  -


 With contributions from (in alphabetic order):
   Daniel Aravena         : Magnetic Suceptibility
   Michael Atanasov       : Ab Initio Ligand Field Theory (pilot matlab implementation)
   Alexander A. Auer      : GIAO ZORA, VPT2
   Ute Becker             : Parallelization
   Giovanni Bistoni       : ED, misc. LED, open-shell LED, HFLED
   Martin Brehm           : Molecular dynamics
   Dmytro Bykov           : SCF Hessian
   Vijay G. Chilkuri      : MRCI spin determinant printing, contributions to CSF-ICE
   Dipayan Datta          : RHF DLPNO-CCSD density
   Achintya Kumar Dutta   : EOM-CC, STEOM-CC
   Dmitry Ganyushin       : Spin-Orbit,Spin-Spin,Magnetic field MRCI
   Miquel Garcia          : C-PCM Hessian, Gaussian charge scheme
   Yang Guo               : DLPNO-NEVPT2, CIM, IAO-localization
   Andreas Hansen         : Spin unrestricted coupled pair/coupled cluster methods
   Benjamin Helmich-Paris : CASSCF linear response (MC-RPA)
   Lee Huntington         : MR-EOM, pCC
   Robert Izsak           : Overlap fitted RIJCOSX, COSX-SCS-MP3, EOM
   Christian Kollmar      : KDIIS, OOCD, Brueckner-CCSD(T), CCSD density
   Simone Kossmann        : Meta GGA functionals, TD-DFT gradient, OOMP2, MP2 Hessian
   Martin Krupicka        : AUTO-CI
   Lucas Lang             : DCDCAS
   Dagmar Lenk            : GEPOL surface, SMD
   Dimitrios Liakos       : Extrapolation schemes; Compound Job, initial MDCI parallelization
   Dimitrios Manganas     : Further ROCIS development; embedding schemes
   Dimitrios Pantazis     : SARC Basis sets
   Taras Petrenko         : DFT Hessian,TD-DFT gradient, ASA, ECA, R-Raman, ABS, FL, XAS/XES, NRVS
   Peter Pinski           : DLPNO-MP2, DLPNO-MP2 Gradient
   Christoph Reimann      : Effective Core Potentials
   Marius Retegan         : Local ZFS, SOC
   Christoph Riplinger    : Optimizer, TS searches, QM/MM, DLPNO-CCSD(T), (RO)-DLPNO pert. Triples
   Tobias Risthaus        : Range-separated hybrids, TD-DFT gradient, RPA, STAB
   Michael Roemelt        : Original ROCIS implementation
   Masaaki Saitow         : Open-shell DLPNO-CCSD energy and density
   Barbara Sandhoefer     : DKH picture change effects
   Avijit Sen             : IP-ROCIS
   Kantharuban Sivalingam : CASSCF convergence, NEVPT2, FIC-MRCI
   Bernardo de Souza      : ESD, SOC TD-DFT
   Georgi Stoychev        : AutoAux, RI-MP2 NMR
   Willem Van den Heuvel  : Paramagnetic NMR
   Boris Wezisla          : Elementary symmetry handling
   Frank Wennmohs         : Technical directorship


 We gratefully acknowledge several colleagues who have allowed us to
 interface, adapt or use parts of their codes:
   Stefan Grimme, W. Hujo, H. Kruse,             : VdW corrections, initial TS optimization,
                  C. Bannwarth                     DFT functionals, gCP, sTDA/sTD-DF
   Ed Valeev, F. Pavosevic, A. Kumar             : LibInt (2-el integral package), F12 methods
   Garnet Chan, S. Sharma, J. Yang, R. Olivares  : DMRG
   Ulf Ekstrom                                   : XCFun DFT Library
   Mihaly Kallay                                 : mrcc  (arbitrary order and MRCC methods)
   Andreas Klamt, Michael Diedenhofen            : otool_cosmo (COSMO solvation model)
   Jiri Pittner, Ondrej Demel                    : Mk-CCSD
   Frank Weinhold                                : gennbo (NPA and NBO analysis)
   Christopher J. Cramer and Donald G. Truhlar   : smd solvation model
   Lars Goerigk                                  : TD-DFT with DH, B97 family of functionals
   V. Asgeirsson, H. Jonsson                     : NEB implementation
   FAccTs GmbH                                   : IRC, NEB, NEB-TS, Multilevel, MM, QM/MM, CI optimization
   S Lehtola, MJT Oliveira, MAL Marques          : LibXC Library


 Your calculation uses the libint2 library for the computation of 2-el integrals
 For citations please refer to: http://libint.valeyev.net

 Your ORCA version has been built with support for libXC version: 4.2.3
 For citations please refer to: https://tddft.org/programs/libxc/

 This ORCA versions uses:
   CBLAS   interface :  Fast vector & matrix operations
   LAPACKE interface :  Fast linear algebra routines
   SCALAPACK package :  Parallel linear algebra routines


Your calculation utilizes the atom-pairwise dispersion correction
with the zero-damping scheme (D30)
Cite in your paper:
S.Grimme, J.Antony, S.Ehrlich and H.Krieg, J.Chem.Phys., 132, (2010), 154104 
   

XCFun DFT library Copyright 2009-2010 Ulf Ekstrom and contributors.
See http://admol.org/xcfun for more information. This is free soft-
ware; see the source code for copying conditions. There is ABSOLUTELY
NO WARRANTY; not even for MERCHANTABILITY or FITNESS FOR A PARTICULAR
PURPOSE. For details see the documentation. Scientific users of this 
library should cite U. Ekstrom, L. Visscher, R. Bast, A. J. Thorvald-
sen and K. Ruud; J.Chem.Theor.Comp. 2010, DOI: 10.1021/ct100117s
XCFun Version 0.99 
----- Orbital basis set information -----
Your calculation utilizes the basis: def2-SVP
   F. Weigend and R. Ahlrichs, Phys. Chem. Chem. Phys. 7, 3297 (2005).

================================================================================
                                        WARNINGS
                       Please study these warnings very carefully!
================================================================================


WARNING: Geometry Optimization
  ===> : Switching off AutoStart
         For restart on a previous wavefunction, please use MOREAD

INFO   : the flag for use of LIBINT has been found!

================================================================================
                                       INPUT FILE
================================================================================
NAME = 039997072.inp
|  1> # ORCA input file
|  2> # -50.00856561
|  3> ! wB97X-D3 def2-SVP Opt
|  4> * xyz 0 1
|  5>    C       -3.43470        -1.46150        -0.98630
|  6>    C       -4.03970        -0.12430        -0.67410
|  7>    N       -3.89310         0.59080         0.35690
|  8>    C       -3.03180         0.17270         1.43920
|  9>    C       -1.57400         0.17340         1.05520
| 10>    C       -1.02570         1.27710         0.41510
| 11>    C        0.30300         1.29520         0.03870
| 12>    C        1.12580         0.20050         0.30210
| 13>    C        0.58120        -0.90620         0.94980
| 14>    C       -0.75200        -0.91530         1.31210
| 15>    H       -1.15470        -1.78600         1.80950
| 16>    H        1.20020        -1.76300         1.15480
| 17>    N        2.47780         0.22870        -0.06640
| 18>    C        3.27240        -0.85750        -0.29290
| 19>    O        2.95480        -2.01960        -0.19800
| 20>    C        4.64040        -0.34610        -0.72130
| 21>    C        4.64000         1.11340        -0.28550
| 22>    H        5.00350         1.19870         0.73930
| 23>    H        5.24760         1.75210        -0.92320
| 24>    C        3.15710         1.48150        -0.34710
| 25>    H        2.88820         1.84680        -1.34660
| 26>    H        2.88050         2.23690         0.39160
| 27>    H        4.71100        -0.44520        -1.80670
| 28>    H        5.43180        -0.94430        -0.27460
| 29>    H        0.69030         2.16450        -0.46910
| 30>    H       -1.65580         2.12780         0.20220
| 31>    H       -3.19540         0.89470         2.24740
| 32>    H       -3.31370        -0.82240         1.80650
| 33>    O       -4.84690         0.33030        -1.64770
| 34>    H       -5.20230         1.18910        -1.37670
| 35>    H       -3.65880        -2.16440        -0.18550
| 36>    H       -3.83930        -1.83030        -1.92360
| 37>    H       -2.35260        -1.37000        -1.06170
| 38> *
| 39> 
| 40>                          ****END OF INPUT****
================================================================================

                       *****************************
                       * Geometry Optimization Run *
                       *****************************

Geometry optimization settings:
Update method            Update   .... BFGS
Choice of coordinates    CoordSys .... Z-matrix Internals
Initial Hessian          InHess   .... Almoef's Model

Convergence Tolerances:
Energy Change            TolE     ....  5.0000e-06 Eh
Max. Gradient            TolMAXG  ....  3.0000e-04 Eh/bohr
RMS Gradient             TolRMSG  ....  1.0000e-04 Eh/bohr
Max. Displacement        TolMAXD  ....  4.0000e-03 bohr
RMS Displacement         TolRMSD  ....  2.0000e-03 bohr
Strict Convergence                ....  False
------------------------------------------------------------------------------
                        ORCA OPTIMIZATION COORDINATE SETUP
------------------------------------------------------------------------------

The optimization will be done in new redundant internal coordinates
Making redundant internal coordinates   ...  (new redundants) done
Evaluating the initial hessian          ...  (Almloef) done
Evaluating the coordinates              ...  done
Calculating the B-matrix                .... done
Calculating the G-matrix                .... done
Diagonalizing the G-matrix              .... done
Small eigenvalue found = 5.032e-03
Small eigenvalue found = 7.258e-03
Small eigenvalue found = 1.222e-02
Small eigenvalue found = 1.780e-02
The first mode is                       ....   81
The number of degrees of freedom        ....   93

    -----------------------------------------------------------------
                    Redundant Internal Coordinates


    -----------------------------------------------------------------
         Definition                    Initial Value    Approx d2E/dq
    -----------------------------------------------------------------
      1. B(C   1,C   0)                  1.5005         0.416285   
      2. B(N   2,C   1)                  1.2633         0.891424   
      3. B(C   3,N   2)                  1.4450         0.457225   
      4. B(C   4,C   3)                  1.5075         0.405725   
      5. B(C   5,C   4)                  1.3887         0.627765   
      6. B(C   6,C   5)                  1.3811         0.645552   
      7. B(C   7,C   6)                  1.3945         0.614458   
      8. B(C   8,C   7)                  1.3932         0.617590   
      9. B(C   9,C   8)                  1.3816         0.644422   
     10. B(C   9,C   4)                  1.3881         0.629066   
     11. B(H  10,C   9)                  1.0806         0.372755   
     12. B(H  11,C   8)                  1.0767         0.378125   
     13. B(N  12,C   7)                  1.4016         0.536245   
     14. B(C  13,N  12)                  1.3647         0.614006   
     15. B(O  14,C  13)                  1.2085         1.090251   
     16. B(C  15,C  13)                  1.5220         0.384718   
     17. B(C  16,C  15)                  1.5232         0.383060   
     18. B(H  17,C  16)                  1.0907         0.359177   
     19. B(H  18,C  16)                  1.0880         0.362735   
     20. B(C  19,C  16)                  1.5291         0.374750   
     21. B(C  19,N  12)                  1.4525         0.444800   
     22. B(H  20,C  19)                  1.0976         0.350170   
     23. B(H  21,C  19)                  1.0922         0.357253   
     24. B(H  22,C  15)                  1.0922         0.357203   
     25. B(H  23,C  15)                  1.0880         0.362784   
     26. B(H  24,C   6)                  1.0787         0.375394   
     27. B(H  25,C   5)                  1.0798         0.373802   
     28. B(H  26,C   3)                  1.0960         0.352238   
     29. B(H  27,C   3)                  1.0975         0.350258   
     30. B(O  28,C   1)                  1.3439         0.662808   
     31. B(H  29,O  28)                  0.9681         0.504645   
     32. B(H  30,C   0)                  1.0888         0.361639   
     33. B(H  31,C   0)                  1.0855         0.366142   
     34. B(H  32,C   0)                  1.0886         0.361989   
     35. A(H  30,C   0,H  32)          108.0468         0.291274   
     36. A(H  30,C   0,H  31)          109.8172         0.291797   
     37. A(H  31,C   0,H  32)          109.8326         0.291841   
     38. A(C   1,C   0,H  30)          109.8330         0.330389   
     39. A(C   1,C   0,H  31)          109.3994         0.331066   
     40. A(C   1,C   0,H  32)          109.8950         0.330441   
     41. A(N   2,C   1,O  28)          118.0000         0.463093   
     42. A(C   0,C   1,N   2)          128.8641         0.428507   
     43. A(C   0,C   1,O  28)          113.1340         0.406483   
     44. A(C   1,N   2,C   3)          121.1092         0.432939   
     45. A(C   4,C   3,H  27)          109.5141         0.327258   
     46. A(N   2,C   3,H  27)          111.0939         0.331776   
     47. A(N   2,C   3,H  26)          105.8270         0.332086   
     48. A(H  26,C   3,H  27)          108.1889         0.288578   
     49. A(C   4,C   3,H  26)          109.3824         0.327562   
     50. A(N   2,C   3,C   4)          112.6732         0.379199   
     51. A(C   3,C   4,C   9)          121.6763         0.403519   
     52. A(C   5,C   4,C   9)          118.3480         0.436178   
     53. A(C   3,C   4,C   5)          119.9723         0.403372   
     54. A(C   4,C   5,H  25)          119.1181         0.355900   
     55. A(C   4,C   5,C   6)          121.0564         0.438217   
     56. A(C   6,C   5,H  25)          119.8227         0.357593   
     57. A(C   7,C   6,H  24)          120.6432         0.354864   
     58. A(C   5,C   6,C   7)          120.3887         0.436528   
     59. A(C   5,C   6,H  24)          118.9658         0.357852   
     60. A(C   6,C   7,C   8)          118.7345         0.433062   
     61. A(C   8,C   7,N  12)          121.0169         0.419876   
     62. A(C   6,C   7,N  12)          120.2438         0.419495   
     63. A(C   9,C   8,H  11)          119.9736         0.358186   
     64. A(C   7,C   8,H  11)          119.7305         0.355608   
     65. A(C   7,C   8,C   9)          120.2896         0.436790   
     66. A(C   8,C   9,H  10)          119.0536         0.357316   
     67. A(C   4,C   9,H  10)          119.7656         0.355855   
     68. A(C   4,C   9,C   8)          121.1797         0.438242   
     69. A(C  13,N  12,C  19)          112.4641         0.403142   
     70. A(C   7,N  12,C  19)          121.2845         0.393660   
     71. A(C   7,N  12,C  13)          126.1038         0.416721   
     72. A(O  14,C  13,C  15)          125.5523         0.438051   
     73. A(N  12,C  13,C  15)          107.6144         0.395514   
     74. A(N  12,C  13,O  14)          126.8212         0.473816   
     75. A(C  13,C  15,C  16)          103.9568         0.366755   
     76. A(H  22,C  15,H  23)          108.1264         0.290810   
     77. A(C  16,C  15,H  23)          114.1773         0.326056   
     78. A(C  13,C  15,H  23)          110.7011         0.326288   
     79. A(C  16,C  15,H  22)          111.7952         0.325226   
     80. A(C  13,C  15,H  22)          107.8985         0.325457   
     81. A(H  18,C  16,C  19)          112.1255         0.324875   
     82. A(H  17,C  16,C  19)          110.0120         0.324349   
     83. A(C  15,C  16,C  19)          102.6731         0.365109   
     84. A(H  17,C  16,H  18)          108.5829         0.291055   
     85. A(C  15,C  16,H  18)          113.2442         0.326049   
     86. A(C  15,C  16,H  17)          110.1010         0.325521   
     87. A(N  12,C  19,C  16)          103.7757         0.372257   
     88. A(H  20,C  19,H  21)          108.8850         0.289206   
     89. A(C  16,C  19,H  21)          112.6345         0.324064   
     90. A(N  12,C  19,H  21)          110.3290         0.331349   
     91. A(C  16,C  19,H  20)          110.7552         0.323000   
     92. A(N  12,C  19,H  20)          110.3932         0.330253   
     93. A(C   1,O  28,H  29)          108.5278         0.372472   
     94. D(N   2,C   1,C   0,H  32)    -64.0889         0.012821   
     95. D(O  28,C   1,C   0,H  30)   -124.8452         0.012821   
     96. D(O  28,C   1,C   0,H  32)    116.4199         0.012821   
     97. D(O  28,C   1,C   0,H  31)     -4.2414         0.012821   
     98. D(N   2,C   1,C   0,H  30)     54.6459         0.012821   
     99. D(N   2,C   1,C   0,H  31)    175.2497         0.012821   
    100. D(C   3,N   2,C   1,C   0)      1.0923         0.062961   
    101. D(C   3,N   2,C   1,O  28)   -179.4377         0.062961   
    102. D(H  27,C   3,N   2,C   1)    -55.2022         0.016467   
    103. D(H  26,C   3,N   2,C   1)   -172.4027         0.016467   
    104. D(C   4,C   3,N   2,C   1)     68.1076         0.016467   
    105. D(C   5,C   4,C   3,H  27)    172.4174         0.012202   
    106. D(C   5,C   4,C   3,H  26)    -69.1744         0.012202   
    107. D(C   9,C   4,C   3,N   2)   -131.0874         0.012202   
    108. D(C   5,C   4,C   3,N   2)     48.2326         0.012202   
    109. D(C   9,C   4,C   3,H  26)    111.5056         0.012202   
    110. D(C   9,C   4,C   3,H  27)     -6.9027         0.012202   
    111. D(H  25,C   5,C   4,C   9)    179.5257         0.027312   
    112. D(H  25,C   5,C   4,C   3)      0.1833         0.027312   
    113. D(C   6,C   5,C   4,C   9)      0.1398         0.027312   
    114. D(C   6,C   5,C   4,C   3)   -179.2026         0.027312   
    115. D(H  24,C   6,C   5,H  25)     -0.2425         0.028988   
    116. D(H  24,C   6,C   5,C   4)    179.1391         0.028988   
    117. D(C   7,C   6,C   5,H  25)   -179.6954         0.028988   
    118. D(C   7,C   6,C   5,C   4)     -0.3138         0.028988   
    119. D(N  12,C   7,C   6,H  24)      1.3471         0.026098   
    120. D(N  12,C   7,C   6,C   5)   -179.2093         0.026098   
    121. D(C   8,C   7,C   6,H  24)   -179.4400         0.026098   
    122. D(C   8,C   7,C   6,C   5)      0.0036         0.026098   
    123. D(C   9,C   8,C   7,C   6)      0.4767         0.026381   
    124. D(C   9,C   8,C   7,N  12)    179.6833         0.026381   
    125. D(H  11,C   8,C   7,N  12)     -1.2315         0.026381   
    126. D(H  11,C   8,C   7,C   6)    179.5619         0.026381   
    127. D(H  10,C   9,C   8,H  11)      0.6348         0.028880   
    128. D(H  10,C   9,C   8,C   7)    179.7178         0.028880   
    129. D(C   4,C   9,C   8,H  11)   -179.7444         0.028880   
    130. D(H  10,C   9,C   4,C   3)     -0.7036         0.027433   
    131. D(C   8,C   9,C   4,C   5)      0.3476         0.027433   
    132. D(C   8,C   9,C   4,C   3)    179.6783         0.027433   
    133. D(C   4,C   9,C   8,C   7)     -0.6614         0.028880   
    134. D(H  10,C   9,C   4,C   5)    179.9657         0.027433   
    135. D(C  19,N  12,C   7,C   8)   -160.4656         0.022861   
    136. D(C  19,N  12,C   7,C   6)     18.7292         0.022861   
    137. D(C  13,N  12,C   7,C   8)     24.2911         0.022861   
    138. D(C  13,N  12,C   7,C   6)   -156.5142         0.022861   
    139. D(C  15,C  13,N  12,C  19)      2.1157         0.030482   
    140. D(C  15,C  13,N  12,C   7)    177.7176         0.030482   
    141. D(O  14,C  13,N  12,C  19)   -176.6724         0.030482   
    142. D(O  14,C  13,N  12,C   7)     -1.0705         0.030482   
    143. D(H  23,C  15,C  13,N  12)    140.3035         0.011028   
    144. D(H  22,C  15,C  13,O  14)     77.2458         0.011028   
    145. D(H  22,C  15,C  13,N  12)   -101.5618         0.011028   
    146. D(C  16,C  15,C  13,O  14)   -163.9179         0.011028   
    147. D(H  23,C  15,C  13,O  14)    -40.8889         0.011028   
    148. D(C  16,C  15,C  13,N  12)     17.2745         0.011028   
    149. D(C  19,C  16,C  15,C  13)    -28.4705         0.011685   
    150. D(H  18,C  16,C  15,H  23)     89.6965         0.011685   
    151. D(H  18,C  16,C  15,H  22)    -33.4514         0.011685   
    152. D(H  18,C  16,C  15,C  13)   -149.5835         0.011685   
    153. D(H  17,C  16,C  15,H  23)    -32.0735         0.011685   
    154. D(H  17,C  16,C  15,H  22)   -155.2215         0.011685   
    155. D(C  19,C  16,C  15,H  22)     87.6615         0.011685   
    156. D(H  17,C  16,C  15,C  13)     88.6465         0.011685   
    157. D(C  19,C  16,C  15,H  23)   -149.1905         0.011685   
    158. D(H  21,C  19,C  16,H  17)     31.8223         0.011210   
    159. D(H  21,C  19,C  16,C  15)    149.0026         0.011210   
    160. D(H  20,C  19,C  16,H  18)     33.0896         0.011210   
    161. D(H  20,C  19,C  16,C  15)    -88.7866         0.011210   
    162. D(N  12,C  19,C  16,H  18)    151.5529         0.011210   
    163. D(N  12,C  19,C  16,H  17)    -87.5037         0.011210   
    164. D(N  12,C  19,C  16,C  15)     29.6766         0.011210   
    165. D(H  21,C  19,N  12,C  13)   -141.4233         0.016873   
    166. D(H  21,C  19,N  12,C   7)     42.7343         0.016873   
    167. D(H  20,C  19,C  16,H  17)    154.0331         0.011210   
    168. D(H  20,C  19,N  12,C  13)     98.1801         0.016873   
    169. D(H  20,C  19,N  12,C   7)    -77.6623         0.016873   
    170. D(C  16,C  19,N  12,C  13)    -20.5325         0.016873   
    171. D(H  21,C  19,C  16,H  18)    -89.1211         0.011210   
    172. D(C  16,C  19,N  12,C   7)    163.6251         0.016873   
    173. D(H  29,O  28,C   1,N   2)      0.1514         0.032574   
    174. D(H  29,O  28,C   1,C   0)    179.7027         0.032574   
    -----------------------------------------------------------------

Number of atoms                         .... 33
Number of degrees of freedom            .... 174

         *************************************************************
         *                GEOMETRY OPTIMIZATION CYCLE   1            *
         *************************************************************
---------------------------------
CARTESIAN COORDINATES (ANGSTROEM)
---------------------------------
  C     -3.434700   -1.461500   -0.986300
  C     -4.039700   -0.124300   -0.674100
  N     -3.893100    0.590800    0.356900
  C     -3.031800    0.172700    1.439200
  C     -1.574000    0.173400    1.055200
  C     -1.025700    1.277100    0.415100
  C      0.303000    1.295200    0.038700
  C      1.125800    0.200500    0.302100
  C      0.581200   -0.906200    0.949800
  C     -0.752000   -0.915300    1.312100
  H     -1.154700   -1.786000    1.809500
  H      1.200200   -1.763000    1.154800
  N      2.477800    0.228700   -0.066400
  C      3.272400   -0.857500   -0.292900
  O      2.954800   -2.019600   -0.198000
  C      4.640400   -0.346100   -0.721300
  C      4.640000    1.113400   -0.285500
  H      5.003500    1.198700    0.739300
  H      5.247600    1.752100   -0.923200
  C      3.157100    1.481500   -0.347100
  H      2.888200    1.846800   -1.346600
  H      2.880500    2.236900    0.391600
  H      4.711000   -0.445200   -1.806700
  H      5.431800   -0.944300   -0.274600
  H      0.690300    2.164500   -0.469100
  H     -1.655800    2.127800    0.202200
  H     -3.195400    0.894700    2.247400
  H     -3.313700   -0.822400    1.806500
  O     -4.846900    0.330300   -1.647700
  H     -5.202300    1.189100   -1.376700
  H     -3.658800   -2.164400   -0.185500
  H     -3.839300   -1.830300   -1.923600
  H     -2.352600   -1.370000   -1.061700

----------------------------
CARTESIAN COORDINATES (A.U.)
----------------------------
  NO LB      ZA    FRAG     MASS         X           Y           Z
   0 C     6.0000    0    12.011   -6.490642   -2.761835   -1.863837
   1 C     6.0000    0    12.011   -7.633927   -0.234893   -1.273864
   2 N     7.0000    0    14.007   -7.356893    1.116450    0.674443
   3 C     6.0000    0    12.011   -5.729272    0.326356    2.719694
   4 C     6.0000    0    12.011   -2.974429    0.327679    1.994039
   5 C     6.0000    0    12.011   -1.938292    2.413369    0.784425
   6 C     6.0000    0    12.011    0.572587    2.447573    0.073132
   7 C     6.0000    0    12.011    2.127454    0.378890    0.570886
   8 C     6.0000    0    12.011    1.098309   -1.712470    1.794862
   9 C     6.0000    0    12.011   -1.421074   -1.729666    2.479510
  10 H     1.0000    0     1.008   -2.182067   -3.375051    3.419459
  11 H     1.0000    0     1.008    2.268049   -3.331587    2.182256
  12 N     7.0000    0    14.007    4.682363    0.432180   -0.125478
  13 C     6.0000    0    12.011    6.183940   -1.620440   -0.553501
  14 O     8.0000    0    15.999    5.583763   -3.816491   -0.374166
  15 C     6.0000    0    12.011    8.769085   -0.654034   -1.363059
  16 C     6.0000    0    12.011    8.768329    2.104021   -0.539517
  17 H     1.0000    0     1.008    9.455245    2.265215    1.397075
  18 H     1.0000    0     1.008    9.916527    3.310989   -1.744595
  19 C     6.0000    0    12.011    5.966054    2.799629   -0.655924
  20 H     1.0000    0     1.008    5.457907    3.489946   -2.544705
  21 H     1.0000    0     1.008    5.443356    4.227128    0.740017
  22 H     1.0000    0     1.008    8.902500   -0.841306   -3.414168
  23 H     1.0000    0     1.008   10.264614   -1.784468   -0.518919
  24 H     1.0000    0     1.008    1.304478    4.090312   -0.886471
  25 H     1.0000    0     1.008   -3.129009    4.020959    0.382103
  26 H     1.0000    0     1.008   -6.038431    1.690738    4.246971
  27 H     1.0000    0     1.008   -6.261985   -1.554111    3.413790
  28 O     8.0000    0    15.999   -9.159314    0.624177   -3.113702
  29 H     1.0000    0     1.008   -9.830922    2.247073   -2.601586
  30 H     1.0000    0     1.008   -6.914130   -4.090123   -0.350544
  31 H     1.0000    0     1.008   -7.255226   -3.458766   -3.635077
  32 H     1.0000    0     1.008   -4.445770   -2.588925   -2.006322

--------------------------------
INTERNAL COORDINATES (ANGSTROEM)
--------------------------------
 C      0   0   0     0.000000000000     0.00000000     0.00000000
 C      1   0   0     1.500532465493     0.00000000     0.00000000
 N      2   1   0     1.263257919033   128.86410490     0.00000000
 C      3   2   1     1.444997782005   121.10924181     1.09227667
 C      4   3   2     1.507526891966   112.67320156    68.10760340
 C      5   4   3     1.388709685283   119.97232462    48.23262162
 C      6   5   4     1.381104000429   121.05641504   180.79735148
 C      7   6   5     1.394542035939   120.38867614   359.68620639
 C      8   7   6     1.393158045593   118.73447443     0.00000000
 C      9   8   7     1.381581101492   120.28960190     0.47667325
 H     10   9   8     1.080598232462   119.05364436   179.71782930
 H      9   8   7     1.076704341962   119.73052600   179.56190983
 N      8   7   6     1.401603185641   120.24383388   180.79069730
 C     13   8   7     1.364742411593   126.10380830   203.48581077
 O     14  13   8     1.208450321693   126.82123943   358.92950334
 C     14  13   8     1.521998856767   107.61444722   177.71757740
 C     16  14  13     1.523174989947   103.95680348    17.27449715
 H     17  16  14     1.090698574309   110.10100700    88.64646152
 H     17  16  14     1.088015045852   113.24419417   210.41652371
 C     13   8   7     1.452497442339   121.28453684    18.72915885
 H     20  13   8     1.097611748297   110.39320895   282.33768198
 H     20  13   8     1.092160432354   110.32899001    42.73430468
 H     16  14  13     1.092198850942   107.89854056   258.43824539
 H     16  14  13     1.087978901450   110.70109160   140.30350390
 H      7   6   5     1.078677254789   118.96584427   179.13908728
 H      6   5   4     1.079834667901   119.11809460     0.18325188
 H      4   3   2     1.096009215290   105.82704787   187.59729446
 H      4   3   2     1.097543124437   111.09394514   304.79776285
 O      2   1   3     1.343923346028   113.13404148   180.50888178
 H     29   2   1     0.968136147450   108.52779083   179.70267680
 H      1   2   3     1.088838766760   109.83297996    54.64589089
 H      1   2   3     1.085470354270   109.39936028   175.24969368
 H      1   2   3     1.088576051546   109.89499184   295.91105058

---------------------------
INTERNAL COORDINATES (A.U.)
---------------------------
 C      0   0   0     0.000000000000     0.00000000     0.00000000
 C      1   0   0     2.835595414840     0.00000000     0.00000000
 N      2   1   0     2.387211503480   128.86410490     0.00000000
 C      3   2   1     2.730650072114   121.10924181     1.09227667
 C      4   3   2     2.848812965337   112.67320156    68.10760340
 C      5   4   3     2.624280984710   119.97232462    48.23262162
 C      6   5   4     2.609908323273   121.05641504   180.79735148
 C      7   6   5     2.635302530165   120.38867614   359.68620639
 C      8   7   6     2.632687167439   118.73447443     0.00000000
 C      9   8   7     2.610809913621   120.28960190     0.47667325
 H     10   9   8     2.042034720153   119.05364436   179.71782930
 H      9   8   7     2.034676333512   119.73052600   179.56190983
 N      8   7   6     2.648646169294   120.24383388   180.79069730
 C     13   8   7     2.578989401258   126.10380830   203.48581077
 O     14  13   8     2.283640154449   126.82123943   358.92950334
 C     14  13   8     2.876161015431   107.61444722   177.71757740
 C     16  14  13     2.878383585038   103.95680348    17.27449715
 H     17  16  14     2.061121600103   110.10100700    88.64646152
 H     17  16  14     2.056050466246   113.24419417   210.41652371
 C     13   8   7     2.744822376241   121.28453684    18.72915885
 H     20  13   8     2.074185605656   110.39320895   282.33768198
 H     20  13   8     2.063884111454   110.32899001    42.73430468
 H     16  14  13     2.063956712065   107.89854056   258.43824539
 H     16  14  13     2.055982163225   110.70109160   140.30350390
 H      7   6   5     2.038404598442   118.96584427   179.13908728
 H      6   5   4     2.040591792246   119.11809460     0.18325188
 H      4   3   2     2.071157257152   105.82704787   187.59729446
 H      4   3   2     2.074055925355   111.09394514   304.79776285
 O      2   1   3     2.539647068977   113.13404148   180.50888178
 H     29   2   1     1.829512179031   108.52779083   179.70267680
 H      1   2   3     2.057607073173   109.83297996    54.64589089
 H      1   2   3     2.051241696062   109.39936028   175.24969368
 H      1   2   3     2.057110613368   109.89499184   295.91105058

---------------------
BASIS SET INFORMATION
---------------------
There are 4 groups of distinct atoms

 Group   1 Type C   : 7s4p1d contracted to 3s2p1d pattern {511/31/1}
 Group   2 Type N   : 7s4p1d contracted to 3s2p1d pattern {511/31/1}
 Group   3 Type H   : 4s1p contracted to 2s1p pattern {31/1}
 Group   4 Type O   : 7s4p1d contracted to 3s2p1d pattern {511/31/1}

Atom   0C    basis set group =>   1
Atom   1C    basis set group =>   1
Atom   2N    basis set group =>   2
Atom   3C    basis set group =>   1
Atom   4C    basis set group =>   1
Atom   5C    basis set group =>   1
Atom   6C    basis set group =>   1
Atom   7C    basis set group =>   1
Atom   8C    basis set group =>   1
Atom   9C    basis set group =>   1
Atom  10H    basis set group =>   3
Atom  11H    basis set group =>   3
Atom  12N    basis set group =>   2
Atom  13C    basis set group =>   1
Atom  14O    basis set group =>   4
Atom  15C    basis set group =>   1
Atom  16C    basis set group =>   1
Atom  17H    basis set group =>   3
Atom  18H    basis set group =>   3
Atom  19C    basis set group =>   1
Atom  20H    basis set group =>   3
Atom  21H    basis set group =>   3
Atom  22H    basis set group =>   3
Atom  23H    basis set group =>   3
Atom  24H    basis set group =>   3
Atom  25H    basis set group =>   3
Atom  26H    basis set group =>   3
Atom  27H    basis set group =>   3
Atom  28O    basis set group =>   4
Atom  29H    basis set group =>   3
Atom  30H    basis set group =>   3
Atom  31H    basis set group =>   3
Atom  32H    basis set group =>   3
------------------------------------------------------------------------------
                           ORCA GTO INTEGRAL CALCULATION
------------------------------------------------------------------------------

                         BASIS SET STATISTICS AND STARTUP INFO

 # of primitive gaussian shells          ...  284
 # of primitive gaussian functions       ...  520
 # of contracted shells                  ...  150
 # of contracted basis functions         ...  318
 Highest angular momentum                ...    2
 Maximum contraction depth               ...    5
 Integral package used                   ... LIBINT
 Integral threshhold            Thresh   ...  2.500e-11
 Primitive cut-off              TCut     ...  2.500e-12


------------------------------ INTEGRAL EVALUATION ----------------------------


 * One electron integrals 
 Pre-screening matrix                    ... done
 Shell pair data                         ... done (   0.003 sec)

-------------------------------------------------------------------------------
                                 ORCA SCF
-------------------------------------------------------------------------------

------------
SCF SETTINGS
------------
Hamiltonian:
 Density Functional     Method          .... DFT(GTOs)
 Exchange Functional    Exchange        .... WB97X-D3
 Correlation Functional Correlation     .... WB97X-D3
 Gradients option       PostSCFGGA      .... off
 Hybrid DFT is turned on
   Fraction HF Exchange ScalHFX         ....  0.195728
   Scaling of DF-GGA-X  ScalDFX         ....  0.000000
   Scaling of DF-GGA-C  ScalDFC         ....  1.000000
   Scaling of DF-LDA-C  ScalLDAC        ....  1.000000
   Perturbative correction              ....  0.000000
   Density functional embedding theory  .... OFF
 Long-range corrected/Screened/Range-Separated Hybrid DFT is turned on
   Amount of maximum screened exact exchange              ....  0.804272
   Range separation parameter mu (erf(mu*r12)/r12)        ....  0.250000


General Settings:
 Integral files         IntName         .... 039997072
 Hartree-Fock type      HFTyp           .... RHF
 Total Charge           Charge          ....    0
 Multiplicity           Mult            ....    1
 Number of Electrons    NEL             ....  124
 Basis Dimension        Dim             ....  318
 Nuclear Repulsion      ENuc            ....   1168.8151331072 Eh

Convergence Acceleration:
 DIIS                   CNVDIIS         .... on
   Start iteration      DIISMaxIt       ....    12
   Startup error        DIISStart       ....  0.200000
   # of expansion vecs  DIISMaxEq       ....     5
   Bias factor          DIISBfac        ....   1.050
   Max. coefficient     DIISMaxC        ....  10.000
 Newton-Raphson         CNVNR           .... off
 SOSCF                  CNVSOSCF        .... on
   Start iteration      SOSCFMaxIt      ....   150
   Startup grad/error   SOSCFStart      ....  0.003300
 Level Shifting         CNVShift        .... on
   Level shift para.    LevelShift      ....    0.2500
   Turn off err/grad.   ShiftErr        ....    0.0010
 Zerner damping         CNVZerner       .... off
 Static damping         CNVDamp         .... on
   Fraction old density DampFac         ....    0.7000
   Max. Damping (<1)    DampMax         ....    0.9800
   Min. Damping (>=0)   DampMin         ....    0.0000
   Turn off err/grad.   DampErr         ....    0.1000
 Fernandez-Rico         CNVRico         .... off

SCF Procedure:
 Maximum # iterations   MaxIter         ....   125
 SCF integral mode      SCFMode         .... Direct
   Integral package                     .... LIBINT
 Reset frequency        DirectResetFreq ....    20
 Integral Threshold     Thresh          ....  2.500e-11 Eh
 Primitive CutOff       TCut            ....  2.500e-12 Eh

Convergence Tolerance:
 Convergence Check Mode ConvCheckMode   .... Total+1el-Energy
 Convergence forced     ConvForced      .... 0
 Energy Change          TolE            ....  1.000e-08 Eh
 1-El. energy change                    ....  1.000e-05 Eh
 Orbital Gradient       TolG            ....  1.000e-05
 Orbital Rotation angle TolX            ....  1.000e-05
 DIIS Error             TolErr          ....  5.000e-07


Diagonalization of the overlap matrix:
Smallest eigenvalue                        ... 2.325e-04
Time for diagonalization                   ...    0.068 sec
Threshold for overlap eigenvalues          ... 1.000e-08
Number of eigenvalues below threshold      ... 0
Time for construction of square roots      ...    0.006 sec
Total time needed                          ...    0.074 sec

-------------------
DFT GRID GENERATION
-------------------

General Integration Accuracy     IntAcc      ...  4.340
Radial Grid Type                 RadialGrid  ... Gauss-Chebyshev
Angular Grid (max. acc.)         AngularGrid ... Lebedev-110
Angular grid pruning method      GridPruning ... 3 (G Style)
Weight generation scheme         WeightScheme... Becke
Basis function cutoff            BFCut       ...    1.0000e-11
Integration weight cutoff        WCut        ...    1.0000e-14
Grids for H and He will be reduced by one unit

# of grid points (after initial pruning)     ...  41068 (   0.0 sec)
# of grid points (after weights+screening)   ...  36893 (   0.2 sec)
nearest neighbour list constructed           ...    0.0 sec
Grid point re-assignment to atoms done       ...    0.0 sec
Grid point division into batches done        ...    0.0 sec
Reduced shell lists constructed in    0.3 sec

Total number of grid points                  ...    36893
Total number of batches                      ...      596
Average number of points per batch           ...       61
Average number of grid points per atom       ...     1118
Average number of shells per batch           ...    78.78 (52.52%)
Average number of basis functions per batch  ...   158.97 (49.99%)
Average number of large shells per batch     ...    54.98 (69.80%)
Average number of large basis fcns per batch ...   110.74 (69.66%)
Maximum spatial batch extension              ...  21.99, 19.34, 22.99 au
Average spatial batch extension              ...   3.25,  3.40,  3.66 au

Time for grid setup =    0.590 sec

------------------------------
INITIAL GUESS: MODEL POTENTIAL
------------------------------
Loading Hartree-Fock densities                     ... done
Calculating cut-offs                               ... done
Setting up the integral package                    ... done
Initializing the effective Hamiltonian             ... done
Starting the Coulomb interaction                   ... done (   0.5 sec)
Reading the grid                                   ... done
Mapping shells                                     ... done
Starting the XC term evaluation                    ... done (   0.5 sec)
  promolecular density results
     # of electrons  =    124.003843672
     EX              =   -100.703661553
     EC              =     -4.165931267
     EX+EC           =   -104.869592820
Transforming the Hamiltonian                       ... done (   0.0 sec)
Diagonalizing the Hamiltonian                      ... done (   0.0 sec)
Back transforming the eigenvectors                 ... done (   0.0 sec)
Now organizing SCF variables                       ... done
                      ------------------
                      INITIAL GUESS DONE (   1.6 sec)
                      ------------------
--------------
SCF ITERATIONS
--------------
ITER       Energy         Delta-E        Max-DP      RMS-DP      [F,P]     Damp
               ***  Starting incremental Fock matrix formation  ***
  0   -763.8229576691   0.000000000000 0.07738372  0.00165636  0.2485903 0.7000
  1   -763.9859299129  -0.162972243889 0.04861896  0.00119363  0.1213002 0.7000
                               ***Turning on DIIS***
  2   -764.0669077902  -0.080977877266 0.07980518  0.00232591  0.0486625 0.0000
  3   -764.2017419313  -0.134834141106 0.04092724  0.00075117  0.0582523 0.0000
  4   -764.2204661673  -0.018724236007 0.00934053  0.00016894  0.0108401 0.0000
  5   -764.2211078109  -0.000641643561 0.00386682  0.00007137  0.0064245 0.0000
                      *** Initiating the SOSCF procedure ***
                           *** Shutting down DIIS ***
                      *** Re-Reading the Fockian *** 
                      *** Removing any level shift *** 
ITER      Energy       Delta-E        Grad      Rot      Max-DP    RMS-DP
  6   -764.22121230  -0.0001044928  0.000814  0.000814  0.002044  0.000048
               *** Restarting incremental Fock matrix formation ***
  7   -764.22123048  -0.0000181793  0.000320  0.000702  0.001274  0.000024
  8   -764.22123087  -0.0000003821  0.000432  0.000403  0.000852  0.000010
  9   -764.22123528  -0.0000044132  0.000037  0.000117  0.000184  0.000004
 10   -764.22123537  -0.0000000950  0.000038  0.000094  0.000075  0.000002
 11   -764.22123544  -0.0000000620  0.000007  0.000013  0.000017  0.000000
 12   -764.22123544  -0.0000000034  0.000005  0.000006  0.000008  0.000000
                  ***Gradient check signals convergence***
              ***Rediagonalizing the Fockian in SOSCF/NRSCF***

               *****************************************************
               *                     SUCCESS                       *
               *           SCF CONVERGED AFTER  13 CYCLES          *
               *****************************************************

Setting up the final grid:

General Integration Accuracy     IntAcc      ...  4.670
Radial Grid Type                 RadialGrid  ... Gauss-Chebyshev
Angular Grid (max. acc.)         AngularGrid ... Lebedev-302
Angular grid pruning method      GridPruning ... 3 (G Style)
Weight generation scheme         WeightScheme... Becke
Basis function cutoff            BFCut       ...    1.0000e-11
Integration weight cutoff        WCut        ...    1.0000e-14
Grids for H and He will be reduced by one unit

# of grid points (after initial pruning)     ... 159908 (   0.1 sec)
# of grid points (after weights+screening)   ... 140759 (   0.9 sec)
nearest neighbour list constructed           ...    0.0 sec
Grid point re-assignment to atoms done       ...    0.0 sec
Grid point division into batches done        ...    0.4 sec
Reduced shell lists constructed in    1.5 sec

Total number of grid points                  ...   140759
Total number of batches                      ...     2214
Average number of points per batch           ...       63
Average number of grid points per atom       ...     4265
Average number of shells per batch           ...    71.78 (47.85%)
Average number of basis functions per batch  ...   143.87 (45.24%)
Average number of large shells per batch     ...    49.37 (68.78%)
Average number of large basis fcns per batch ...    98.57 (68.51%)
Maximum spatial batch extension              ...  17.90, 19.08, 21.00 au
Average spatial batch extension              ...   2.18,  2.27,  2.38 au

Final grid set up in    2.5 sec
Final integration                            ... done (   2.4 sec)
Change in XC energy                          ...     0.000461765
Integrated number of electrons               ...   124.000038421
Previous integrated no of electrons          ...   124.001492235

----------------
TOTAL SCF ENERGY
----------------

Total Energy       :         -764.22077368 Eh          -20795.50447 eV

Components:
Nuclear Repulsion  :         1168.81513311 Eh           31805.07671 eV
Electronic Energy  :        -1933.03590678 Eh          -52600.58119 eV
One Electron Energy:        -3357.38632967 Eh          -91359.12664 eV
Two Electron Energy:         1424.35042289 Eh           38758.54545 eV

Virial components:
Potential Energy   :        -1520.94414956 Eh          -41386.99438 eV
Kinetic Energy     :          756.72337589 Eh           20591.48991 eV
Virial Ratio       :            2.00990771


DFT components:
N(Alpha)           :       62.000019210375 electrons
N(Beta)            :       62.000019210375 electrons
N(Total)           :      124.000038420751 electrons
E(XC)              :      -73.994166963961 Eh       
DFET-embed. en.    :        0.000000000000 Eh       

---------------
SCF CONVERGENCE
---------------

  Last Energy change         ...   -8.8926e-10  Tolerance :   1.0000e-08
  Last MAX-Density change    ...    3.9327e-06  Tolerance :   1.0000e-07
  Last RMS-Density change    ...    7.9323e-08  Tolerance :   5.0000e-09
  Last Orbital Gradient      ...    1.1196e-06  Tolerance :   1.0000e-05
  Last Orbital Rotation      ...    3.0362e-06  Tolerance :   1.0000e-05

             **** THE GBW FILE WAS UPDATED (039997072.gbw) ****
             **** DENSITY FILE WAS UPDATED (039997072.scfp) ****
             **** ENERGY FILE WAS UPDATED (039997072.en.tmp) ****
             **** THE GBW FILE WAS UPDATED (039997072.gbw) ****
             **** DENSITY FILE WAS UPDATED (039997072.scfp) ****
----------------
ORBITAL ENERGIES
----------------

  NO   OCC          E(Eh)            E(eV) 
   0   2.0000     -19.264506      -524.2139 
   1   2.0000     -19.208167      -522.6808 
   2   2.0000     -14.472359      -393.8129 
   3   2.0000     -14.394415      -391.6919 
   4   2.0000     -10.391082      -282.7557 
   5   2.0000     -10.377731      -282.3924 
   6   2.0000     -10.338952      -281.3372 
   7   2.0000     -10.334818      -281.2247 
   8   2.0000     -10.311312      -280.5851 
   9   2.0000     -10.306013      -280.4409 
  10   2.0000     -10.299345      -280.2594 
  11   2.0000     -10.292273      -280.0670 
  12   2.0000     -10.290517      -280.0192 
  13   2.0000     -10.290315      -280.0137 
  14   2.0000     -10.288156      -279.9550 
  15   2.0000     -10.288073      -279.9527 
  16   2.0000     -10.282646      -279.8050 
  17   2.0000      -1.174297       -31.9542 
  18   2.0000      -1.154174       -31.4067 
  19   2.0000      -1.077044       -29.3078 
  20   2.0000      -1.014543       -27.6071 
  21   2.0000      -0.975076       -26.5332 
  22   2.0000      -0.925053       -25.1720 
  23   2.0000      -0.868348       -23.6290 
  24   2.0000      -0.862038       -23.4573 
  25   2.0000      -0.848050       -23.0766 
  26   2.0000      -0.834682       -22.7128 
  27   2.0000      -0.792557       -21.5666 
  28   2.0000      -0.742287       -20.1987 
  29   2.0000      -0.726151       -19.7596 
  30   2.0000      -0.702744       -19.1226 
  31   2.0000      -0.694252       -18.8916 
  32   2.0000      -0.665538       -18.1102 
  33   2.0000      -0.627912       -17.0864 
  34   2.0000      -0.613869       -16.7042 
  35   2.0000      -0.596851       -16.2411 
  36   2.0000      -0.586568       -15.9613 
  37   2.0000      -0.570986       -15.5373 
  38   2.0000      -0.562591       -15.3089 
  39   2.0000      -0.553027       -15.0486 
  40   2.0000      -0.544737       -14.8230 
  41   2.0000      -0.535996       -14.5852 
  42   2.0000      -0.530659       -14.4400 
  43   2.0000      -0.523883       -14.2556 
  44   2.0000      -0.518337       -14.1047 
  45   2.0000      -0.510990       -13.9047 
  46   2.0000      -0.506154       -13.7732 
  47   2.0000      -0.496856       -13.5201 
  48   2.0000      -0.494703       -13.4615 
  49   2.0000      -0.476603       -12.9690 
  50   2.0000      -0.475040       -12.9265 
  51   2.0000      -0.467032       -12.7086 
  52   2.0000      -0.458605       -12.4793 
  53   2.0000      -0.457659       -12.4535 
  54   2.0000      -0.439136       -11.9495 
  55   2.0000      -0.438148       -11.9226 
  56   2.0000      -0.385812       -10.4985 
  57   2.0000      -0.350266        -9.5312 
  58   2.0000      -0.346498        -9.4287 
  59   2.0000      -0.337912        -9.1950 
  60   2.0000      -0.337306        -9.1786 
  61   2.0000      -0.299705        -8.1554 
  62   0.0000       0.060012         1.6330 
  63   0.0000       0.068686         1.8690 
  64   0.0000       0.109483         2.9792 
  65   0.0000       0.123844         3.3700 
  66   0.0000       0.132795         3.6135 
  67   0.0000       0.147579         4.0158 
  68   0.0000       0.159587         4.3426 
  69   0.0000       0.169167         4.6033 
  70   0.0000       0.171247         4.6599 
  71   0.0000       0.187346         5.0980 
  72   0.0000       0.195508         5.3200 
  73   0.0000       0.196874         5.3572 
  74   0.0000       0.208962         5.6862 
  75   0.0000       0.218346         5.9415 
  76   0.0000       0.223048         6.0694 
  77   0.0000       0.228419         6.2156 
  78   0.0000       0.233664         6.3583 
  79   0.0000       0.246093         6.6965 
  80   0.0000       0.255328         6.9478 
  81   0.0000       0.258929         7.0458 
  82   0.0000       0.267256         7.2724 
  83   0.0000       0.274517         7.4700 
  84   0.0000       0.282157         7.6779 
  85   0.0000       0.299747         8.1565 
  86   0.0000       0.310667         8.4537 
  87   0.0000       0.325635         8.8610 
  88   0.0000       0.337065         9.1720 
  89   0.0000       0.348019         9.4701 
  90   0.0000       0.361015         9.8237 
  91   0.0000       0.372860        10.1460 
  92   0.0000       0.383562        10.4373 
  93   0.0000       0.387347        10.5403 
  94   0.0000       0.393750        10.7145 
  95   0.0000       0.411017        11.1843 
  96   0.0000       0.420170        11.4334 
  97   0.0000       0.438963        11.9448 
  98   0.0000       0.462239        12.5782 
  99   0.0000       0.476814        12.9748 
 100   0.0000       0.486832        13.2474 
 101   0.0000       0.495147        13.4736 
 102   0.0000       0.502738        13.6802 
 103   0.0000       0.525473        14.2989 
 104   0.0000       0.533552        14.5187 
 105   0.0000       0.543662        14.7938 
 106   0.0000       0.552420        15.0321 
 107   0.0000       0.555102        15.1051 
 108   0.0000       0.567017        15.4293 
 109   0.0000       0.570929        15.5358 
 110   0.0000       0.581363        15.8197 
 111   0.0000       0.590059        16.0563 
 112   0.0000       0.591381        16.0923 
 113   0.0000       0.600726        16.3466 
 114   0.0000       0.614975        16.7343 
 115   0.0000       0.622613        16.9422 
 116   0.0000       0.637293        17.3416 
 117   0.0000       0.638731        17.3808 
 118   0.0000       0.656488        17.8639 
 119   0.0000       0.667551        18.1650 
 120   0.0000       0.677047        18.4234 
 121   0.0000       0.686794        18.6886 
 122   0.0000       0.701537        19.0898 
 123   0.0000       0.710395        19.3308 
 124   0.0000       0.718211        19.5435 
 125   0.0000       0.720865        19.6157 
 126   0.0000       0.724861        19.7245 
 127   0.0000       0.734859        19.9965 
 128   0.0000       0.738902        20.1065 
 129   0.0000       0.745186        20.2776 
 130   0.0000       0.751601        20.4521 
 131   0.0000       0.755675        20.5630 
 132   0.0000       0.762431        20.7468 
 133   0.0000       0.765337        20.8259 
 134   0.0000       0.767295        20.8792 
 135   0.0000       0.774553        21.0767 
 136   0.0000       0.779965        21.2239 
 137   0.0000       0.784468        21.3465 
 138   0.0000       0.788858        21.4659 
 139   0.0000       0.790067        21.4988 
 140   0.0000       0.793195        21.5839 
 141   0.0000       0.797132        21.6911 
 142   0.0000       0.805132        21.9087 
 143   0.0000       0.807676        21.9780 
 144   0.0000       0.810118        22.0444 
 145   0.0000       0.822463        22.3804 
 146   0.0000       0.833373        22.6772 
 147   0.0000       0.837608        22.7925 
 148   0.0000       0.846486        23.0341 
 149   0.0000       0.856342        23.3022 
 150   0.0000       0.865776        23.5590 
 151   0.0000       0.884557        24.0700 
 152   0.0000       0.895587        24.3702 
 153   0.0000       0.922000        25.0889 
 154   0.0000       0.945440        25.7267 
 155   0.0000       0.957930        26.0666 
 156   0.0000       0.966632        26.3034 
 157   0.0000       0.982192        26.7268 
 158   0.0000       0.988651        26.9026 
 159   0.0000       1.012109        27.5409 
 160   0.0000       1.037548        28.2331 
 161   0.0000       1.046003        28.4632 
 162   0.0000       1.065070        28.9820 
 163   0.0000       1.083946        29.4957 
 164   0.0000       1.094745        29.7895 
 165   0.0000       1.119102        30.4523 
 166   0.0000       1.121557        30.5191 
 167   0.0000       1.161190        31.5976 
 168   0.0000       1.177515        32.0418 
 169   0.0000       1.182568        32.1793 
 170   0.0000       1.192525        32.4503 
 171   0.0000       1.221014        33.2255 
 172   0.0000       1.229862        33.4662 
 173   0.0000       1.251037        34.0424 
 174   0.0000       1.266150        34.4537 
 175   0.0000       1.306318        35.5467 
 176   0.0000       1.320679        35.9375 
 177   0.0000       1.331166        36.2229 
 178   0.0000       1.345975        36.6258 
 179   0.0000       1.357444        36.9379 
 180   0.0000       1.362641        37.0793 
 181   0.0000       1.369731        37.2723 
 182   0.0000       1.374810        37.4105 
 183   0.0000       1.392460        37.8908 
 184   0.0000       1.399497        38.0822 
 185   0.0000       1.416718        38.5508 
 186   0.0000       1.417678        38.5770 
 187   0.0000       1.424475        38.7619 
 188   0.0000       1.426418        38.8148 
 189   0.0000       1.480018        40.2733 
 190   0.0000       1.507281        41.0152 
 191   0.0000       1.512289        41.1515 
 192   0.0000       1.563164        42.5359 
 193   0.0000       1.570460        42.7344 
 194   0.0000       1.601710        43.5847 
 195   0.0000       1.609299        43.7913 
 196   0.0000       1.636840        44.5407 
 197   0.0000       1.646197        44.7953 
 198   0.0000       1.662010        45.2256 
 199   0.0000       1.678058        45.6623 
 200   0.0000       1.692460        46.0542 
 201   0.0000       1.707418        46.4612 
 202   0.0000       1.710287        46.5393 
 203   0.0000       1.745505        47.4976 
 204   0.0000       1.763974        48.0002 
 205   0.0000       1.770555        48.1792 
 206   0.0000       1.797906        48.9235 
 207   0.0000       1.812776        49.3282 
 208   0.0000       1.814273        49.3689 
 209   0.0000       1.822574        49.5948 
 210   0.0000       1.824159        49.6379 
 211   0.0000       1.835505        49.9466 
 212   0.0000       1.847707        50.2787 
 213   0.0000       1.849127        50.3173 
 214   0.0000       1.859286        50.5937 
 215   0.0000       1.863250        50.7016 
 216   0.0000       1.868524        50.8451 
 217   0.0000       1.879893        51.1545 
 218   0.0000       1.887836        51.3706 
 219   0.0000       1.894048        51.5397 
 220   0.0000       1.899099        51.6771 
 221   0.0000       1.904868        51.8341 
 222   0.0000       1.910314        51.9823 
 223   0.0000       1.913622        52.0723 
 224   0.0000       1.942857        52.8678 
 225   0.0000       1.949159        53.0393 
 226   0.0000       1.959625        53.3241 
 227   0.0000       1.963495        53.4294 
 228   0.0000       1.971984        53.6604 
 229   0.0000       1.982793        53.9545 
 230   0.0000       1.990628        54.1678 
 231   0.0000       2.004235        54.5380 
 232   0.0000       2.006411        54.5972 
 233   0.0000       2.018005        54.9127 
 234   0.0000       2.042614        55.5823 
 235   0.0000       2.062796        56.1315 
 236   0.0000       2.070077        56.3297 
 237   0.0000       2.073620        56.4261 
 238   0.0000       2.093435        56.9653 
 239   0.0000       2.102209        57.2040 
 240   0.0000       2.110169        57.4206 
 241   0.0000       2.121928        57.7406 
 242   0.0000       2.148174        58.4548 
 243   0.0000       2.160790        58.7981 
 244   0.0000       2.177943        59.2648 
 245   0.0000       2.195150        59.7331 
 246   0.0000       2.201008        59.8925 
 247   0.0000       2.216854        60.3237 
 248   0.0000       2.231368        60.7186 
 249   0.0000       2.255248        61.3684 
 250   0.0000       2.265353        61.6434 
 251   0.0000       2.271154        61.8012 
 252   0.0000       2.289156        62.2911 
 253   0.0000       2.302535        62.6552 
 254   0.0000       2.326178        63.2985 
 255   0.0000       2.336215        63.5716 
 256   0.0000       2.363233        64.3068 
 257   0.0000       2.389142        65.0119 
 258   0.0000       2.402426        65.3733 
 259   0.0000       2.411084        65.6089 
 260   0.0000       2.422851        65.9291 
 261   0.0000       2.447508        66.6001 
 262   0.0000       2.456954        66.8571 
 263   0.0000       2.473904        67.3184 
 264   0.0000       2.479492        67.4704 
 265   0.0000       2.501858        68.0790 
 266   0.0000       2.514725        68.4292 
 267   0.0000       2.529015        68.8180 
 268   0.0000       2.548479        69.3476 
 269   0.0000       2.562128        69.7191 
 270   0.0000       2.576791        70.1180 
 271   0.0000       2.614637        71.1479 
 272   0.0000       2.641985        71.8921 
 273   0.0000       2.659665        72.3732 
 274   0.0000       2.683421        73.0196 
 275   0.0000       2.694526        73.3218 
 276   0.0000       2.710435        73.7547 
 277   0.0000       2.746851        74.7456 
 278   0.0000       2.751870        74.8822 
 279   0.0000       2.767683        75.3125 
 280   0.0000       2.773100        75.4599 
 281   0.0000       2.803586        76.2895 
 282   0.0000       2.807604        76.3988 
 283   0.0000       2.812974        76.5449 
 284   0.0000       2.830089        77.0106 
 285   0.0000       2.862027        77.8797 
 286   0.0000       2.866647        78.0054 
 287   0.0000       2.877835        78.3099 
 288   0.0000       2.884779        78.4988 
 289   0.0000       2.897668        78.8496 
 290   0.0000       2.930143        79.7332 
 291   0.0000       2.934493        79.8516 
 292   0.0000       2.958929        80.5166 
 293   0.0000       3.003912        81.7406 
 294   0.0000       3.011568        81.9489 
 295   0.0000       3.014134        82.0187 
 296   0.0000       3.027398        82.3797 
 297   0.0000       3.042205        82.7826 
 298   0.0000       3.055937        83.1563 
 299   0.0000       3.068428        83.4962 
 300   0.0000       3.073792        83.6421 
 301   0.0000       3.092057        84.1391 
 302   0.0000       3.101549        84.3974 
 303   0.0000       3.140830        85.4663 
 304   0.0000       3.169079        86.2350 
 305   0.0000       3.180911        86.5570 
 306   0.0000       3.195706        86.9596 
 307   0.0000       3.274322        89.0988 
 308   0.0000       3.307477        90.0010 
 309   0.0000       3.323264        90.4306 
 310   0.0000       3.335001        90.7500 
 311   0.0000       3.401851        92.5691 
 312   0.0000       3.435326        93.4800 
 313   0.0000       3.633606        98.8754 
 314   0.0000       3.657700        99.5311 
 315   0.0000       3.745875       101.9304 
 316   0.0000       3.814031       103.7851 
 317   0.0000       3.881691       105.6262 

                    ********************************
                    * MULLIKEN POPULATION ANALYSIS *
                    ********************************

-----------------------
MULLIKEN ATOMIC CHARGES
-----------------------
   0 C :   -0.001331
   1 C :   -0.010652
   2 N :   -0.277085
   3 C :    0.249085
   4 C :   -0.132807
   5 C :   -0.003364
   6 C :   -0.077716
   7 C :    0.185776
   8 C :   -0.041840
   9 C :   -0.033780
  10 H :   -0.002269
  11 H :    0.025742
  12 N :   -0.332162
  13 C :    0.146062
  14 O :   -0.249132
  15 C :   -0.041239
  16 C :   -0.042064
  17 H :    0.050298
  18 H :    0.039306
  19 C :    0.115270
  20 H :    0.042639
  21 H :    0.051559
  22 H :    0.063144
  23 H :    0.060674
  24 H :   -0.001267
  25 H :    0.006707
  26 H :    0.038456
  27 H :    0.004008
  28 O :   -0.207663
  29 H :    0.183198
  30 H :    0.056665
  31 H :    0.053456
  32 H :    0.082326
Sum of atomic charges:    0.0000000

--------------------------------
MULLIKEN REDUCED ORBITAL CHARGES
--------------------------------
  0 C s       :     2.949654  s :     2.949654
      pz      :     1.020371  p :     3.026953
      px      :     1.043904
      py      :     0.962678
      dz2     :     0.005202  d :     0.024724
      dxz     :     0.002773
      dyz     :     0.005995
      dx2y2   :     0.006770
      dxy     :     0.003984
  1 C s       :     3.127013  s :     3.127013
      pz      :     0.874478  p :     2.776912
      px      :     0.864611
      py      :     1.037824
      dz2     :     0.026812  d :     0.106727
      dxz     :     0.025896
      dyz     :     0.024794
      dx2y2   :     0.015672
      dxy     :     0.013552
  2 N s       :     3.512124  s :     3.512124
      pz      :     1.022693  p :     3.738491
      px      :     1.284529
      py      :     1.431269
      dz2     :     0.004792  d :     0.026470
      dxz     :     0.005062
      dyz     :     0.008514
      dx2y2   :     0.003724
      dxy     :     0.004378
  3 C s       :     2.906452  s :     2.906452
      pz      :     0.946573  p :     2.793892
      px      :     0.872514
      py      :     0.974806
      dz2     :     0.009746  d :     0.050571
      dxz     :     0.012019
      dyz     :     0.011742
      dx2y2   :     0.011097
      dxy     :     0.005966
  4 C s       :     3.057146  s :     3.057146
      pz      :     1.010281  p :     3.032670
      px      :     1.007673
      py      :     1.014716
      dz2     :     0.004868  d :     0.042992
      dxz     :     0.006843
      dyz     :     0.006781
      dx2y2   :     0.012291
      dxy     :     0.012209
  5 C s       :     3.203755  s :     3.203755
      pz      :     0.972225  p :     2.763883
      px      :     0.875711
      py      :     0.915946
      dz2     :     0.004691  d :     0.035727
      dxz     :     0.006617
      dyz     :     0.004233
      dx2y2   :     0.009016
      dxy     :     0.011170
  6 C s       :     3.229461  s :     3.229461
      pz      :     0.981828  p :     2.814095
      px      :     0.933262
      py      :     0.899005
      dz2     :     0.003089  d :     0.034160
      dxz     :     0.007030
      dyz     :     0.004549
      dx2y2   :     0.008739
      dxy     :     0.010753
  7 C s       :     2.944067  s :     2.944067
      pz      :     0.965021  p :     2.811622
      px      :     0.846282
      py      :     1.000319
      dz2     :     0.007570  d :     0.058535
      dxz     :     0.013768
      dyz     :     0.006817
      dx2y2   :     0.018101
      dxy     :     0.012280
  8 C s       :     3.243426  s :     3.243426
      pz      :     0.971547  p :     2.764469
      px      :     0.878648
      py      :     0.914274
      dz2     :     0.004484  d :     0.033945
      dxz     :     0.006131
      dyz     :     0.004534
      dx2y2   :     0.008232
      dxy     :     0.010563
  9 C s       :     3.202530  s :     3.202530
      pz      :     0.963162  p :     2.795347
      px      :     0.920589
      py      :     0.911595
      dz2     :     0.003017  d :     0.035904
      dxz     :     0.007080
      dyz     :     0.004849
      dx2y2   :     0.010164
      dxy     :     0.010793
 10 H s       :     0.979033  s :     0.979033
      pz      :     0.006944  p :     0.023236
      px      :     0.005107
      py      :     0.011186
 11 H s       :     0.948803  s :     0.948803
      pz      :     0.004551  p :     0.025455
      px      :     0.008885
      py      :     0.012019
 12 N s       :     3.405282  s :     3.405282
      pz      :     1.596699  p :     3.899932
      px      :     1.163080
      py      :     1.140154
      dz2     :     0.002855  d :     0.026948
      dxz     :     0.004109
      dyz     :     0.004015
      dx2y2   :     0.007390
      dxy     :     0.008578
 13 C s       :     3.072315  s :     3.072315
      pz      :     0.818740  p :     2.658833
      px      :     0.971478
      py      :     0.868615
      dz2     :     0.007728  d :     0.122790
      dxz     :     0.007466
      dyz     :     0.031761
      dx2y2   :     0.030258
      dxy     :     0.045577
 14 O s       :     3.728066  s :     3.728066
      pz      :     1.443260  p :     4.502494
      px      :     1.706664
      py      :     1.352570
      dz2     :     0.002085  d :     0.018572
      dxz     :     0.000411
      dyz     :     0.005514
      dx2y2   :     0.005885
      dxy     :     0.004676
 15 C s       :     3.004196  s :     3.004196
      pz      :     1.047172  p :     3.004517
      px      :     1.003106
      py      :     0.954238
      dz2     :     0.008504  d :     0.032526
      dxz     :     0.003691
      dyz     :     0.004995
      dx2y2   :     0.007317
      dxy     :     0.008019
 16 C s       :     3.027648  s :     3.027648
      pz      :     1.032771  p :     2.979572
      px      :     0.964418
      py      :     0.982383
      dz2     :     0.007549  d :     0.034843
      dxz     :     0.006065
      dyz     :     0.005913
      dx2y2   :     0.008342
      dxy     :     0.006974
 17 H s       :     0.927287  s :     0.927287
      pz      :     0.013316  p :     0.022415
      px      :     0.005102
      py      :     0.003997
 18 H s       :     0.937611  s :     0.937611
      pz      :     0.008245  p :     0.023083
      px      :     0.007316
      py      :     0.007522
 19 C s       :     2.998468  s :     2.998468
      pz      :     1.020643  p :     2.836638
      px      :     0.964604
      py      :     0.851390
      dz2     :     0.008746  d :     0.049625
      dxz     :     0.006102
      dyz     :     0.013025
      dx2y2   :     0.009482
      dxy     :     0.012270
 20 H s       :     0.935761  s :     0.935761
      pz      :     0.013414  p :     0.021600
      px      :     0.003951
      py      :     0.004235
 21 H s       :     0.926876  s :     0.926876
      pz      :     0.009464  p :     0.021565
      px      :     0.003932
      py      :     0.008169
 22 H s       :     0.913385  s :     0.913385
      pz      :     0.014578  p :     0.023471
      px      :     0.004686
      py      :     0.004208
 23 H s       :     0.916635  s :     0.916635
      pz      :     0.006356  p :     0.022691
      px      :     0.009355
      py      :     0.006980
 24 H s       :     0.977568  s :     0.977568
      pz      :     0.007417  p :     0.023699
      px      :     0.004959
      py      :     0.011323
 25 H s       :     0.969708  s :     0.969708
      pz      :     0.004825  p :     0.023586
      px      :     0.008027
      py      :     0.010733
 26 H s       :     0.940057  s :     0.940057
      pz      :     0.008685  p :     0.021487
      px      :     0.003839
      py      :     0.008963
 27 H s       :     0.973855  s :     0.973855
      pz      :     0.004666  p :     0.022137
      px      :     0.004324
      py      :     0.013147
 28 O s       :     3.669288  s :     3.669288
      pz      :     1.584484  p :     4.524633
      px      :     1.574386
      py      :     1.365763
      dz2     :     0.003219  d :     0.013742
      dxz     :     0.003986
      dyz     :     0.003185
      dx2y2   :     0.002229
      dxy     :     0.001123
 29 H s       :     0.750116  s :     0.750116
      pz      :     0.015267  p :     0.066686
      px      :     0.018263
      py      :     0.033155
 30 H s       :     0.918834  s :     0.918834
      pz      :     0.010226  p :     0.024502
      px      :     0.005586
      py      :     0.008690
 31 H s       :     0.922429  s :     0.922429
      pz      :     0.012693  p :     0.024116
      px      :     0.006252
      py      :     0.005170
 32 H s       :     0.892175  s :     0.892175
      pz      :     0.005215  p :     0.025498
      px      :     0.015718
      py      :     0.004566


                     *******************************
                     * LOEWDIN POPULATION ANALYSIS *
                     *******************************

----------------------
LOEWDIN ATOMIC CHARGES
----------------------
   0 C :   -0.074824
   1 C :    0.067722
   2 N :   -0.194753
   3 C :    0.024554
   4 C :   -0.052617
   5 C :   -0.017567
   6 C :   -0.052979
   7 C :    0.024920
   8 C :   -0.031914
   9 C :   -0.027994
  10 H :    0.027837
  11 H :    0.036259
  12 N :   -0.037855
  13 C :    0.078437
  14 O :   -0.202552
  15 C :   -0.056813
  16 C :   -0.036538
  17 H :    0.032988
  18 H :    0.030128
  19 C :    0.046725
  20 H :    0.019171
  21 H :    0.027780
  22 H :    0.045887
  23 H :    0.042259
  24 H :    0.028173
  25 H :    0.031788
  26 H :    0.031753
  27 H :    0.014832
  28 O :   -0.053715
  29 H :    0.090256
  30 H :    0.044406
  31 H :    0.041703
  32 H :    0.052545

-------------------------------
LOEWDIN REDUCED ORBITAL CHARGES
-------------------------------
  0 C s       :     2.829616  s :     2.829616
      pz      :     1.071562  p :     3.176965
      px      :     1.075357
      py      :     1.030047
      dz2     :     0.014141  d :     0.068243
      dxz     :     0.006907
      dyz     :     0.017300
      dx2y2   :     0.018984
      dxy     :     0.010912
  1 C s       :     2.847547  s :     2.847547
      pz      :     0.954906  p :     2.851614
      px      :     0.880814
      py      :     1.015893
      dz2     :     0.058718  d :     0.233118
      dxz     :     0.056833
      dyz     :     0.058246
      dx2y2   :     0.033072
      dxy     :     0.026250
  2 N s       :     3.213106  s :     3.213106
      pz      :     1.151839  p :     3.926246
      px      :     1.285718
      py      :     1.488689
      dz2     :     0.011842  d :     0.055402
      dxz     :     0.011543
      dyz     :     0.019793
      dx2y2   :     0.006135
      dxy     :     0.006088
  3 C s       :     2.822959  s :     2.822959
      pz      :     0.986296  p :     3.030773
      px      :     0.988673
      py      :     1.055803
      dz2     :     0.021558  d :     0.121715
      dxz     :     0.027889
      dyz     :     0.029457
      dx2y2   :     0.029531
      dxy     :     0.013280
  4 C s       :     2.850831  s :     2.850831
      pz      :     0.990588  p :     3.092927
      px      :     1.034280
      py      :     1.068059
      dz2     :     0.010919  d :     0.108859
      dxz     :     0.015024
      dyz     :     0.016716
      dx2y2   :     0.033499
      dxy     :     0.032701
  5 C s       :     2.847164  s :     2.847164
      pz      :     0.988457  p :     3.076011
      px      :     1.048288
      py      :     1.039266
      dz2     :     0.010370  d :     0.094393
      dxz     :     0.016424
      dyz     :     0.010422
      dx2y2   :     0.026000
      dxy     :     0.031176
  6 C s       :     2.848241  s :     2.848241
      pz      :     1.016514  p :     3.113602
      px      :     1.060752
      py      :     1.036336
      dz2     :     0.007007  d :     0.091136
      dxz     :     0.016656
      dyz     :     0.010790
      dx2y2   :     0.025915
      dxy     :     0.030768
  7 C s       :     2.821911  s :     2.821911
      pz      :     0.993743  p :     3.008514
      px      :     0.929184
      py      :     1.085587
      dz2     :     0.016197  d :     0.144655
      dxz     :     0.031263
      dyz     :     0.016162
      dx2y2   :     0.046696
      dxy     :     0.034337
  8 C s       :     2.850759  s :     2.850759
      pz      :     0.989203  p :     3.091080
      px      :     1.060311
      py      :     1.041566
      dz2     :     0.009902  d :     0.090075
      dxz     :     0.015052
      dyz     :     0.011186
      dx2y2   :     0.024416
      dxy     :     0.029520
  9 C s       :     2.849604  s :     2.849604
      pz      :     0.988316  p :     3.083195
      px      :     1.060380
      py      :     1.034499
      dz2     :     0.006997  d :     0.095195
      dxz     :     0.016627
      dyz     :     0.011456
      dx2y2   :     0.029163
      dxy     :     0.030953
 10 H s       :     0.903368  s :     0.903368
      pz      :     0.020804  p :     0.068795
      px      :     0.015701
      py      :     0.032290
 11 H s       :     0.886619  s :     0.886619
      pz      :     0.015460  p :     0.077122
      px      :     0.026713
      py      :     0.034950
 12 N s       :     3.057441  s :     3.057441
      pz      :     1.530685  p :     3.913876
      px      :     1.199778
      py      :     1.183414
      dz2     :     0.005579  d :     0.066538
      dxz     :     0.008527
      dyz     :     0.007988
      dx2y2   :     0.019652
      dxy     :     0.024792
 13 C s       :     2.835520  s :     2.835520
      pz      :     0.823897  p :     2.808224
      px      :     0.984025
      py      :     1.000301
      dz2     :     0.017704  d :     0.277819
      dxz     :     0.013661
      dyz     :     0.063955
      dx2y2   :     0.073324
      dxy     :     0.109174
 14 O s       :     3.535291  s :     3.535291
      pz      :     1.443936  p :     4.635785
      px      :     1.714838
      py      :     1.477011
      dz2     :     0.004336  d :     0.031476
      dxz     :     0.000516
      dyz     :     0.006887
      dx2y2   :     0.011554
      dxy     :     0.008184
 15 C s       :     2.839424  s :     2.839424
      pz      :     1.072134  p :     3.132661
      px      :     1.040648
      py      :     1.019878
      dz2     :     0.022374  d :     0.084728
      dxz     :     0.009580
      dyz     :     0.011517
      dx2y2   :     0.021184
      dxy     :     0.020074
 16 C s       :     2.831625  s :     2.831625
      pz      :     1.073390  p :     3.116861
      px      :     1.015671
      py      :     1.027800
      dz2     :     0.019044  d :     0.088051
      dxz     :     0.014683
      dyz     :     0.014005
      dx2y2   :     0.023985
      dxy     :     0.016335
 17 H s       :     0.899363  s :     0.899363
      pz      :     0.037881  p :     0.067649
      px      :     0.016101
      py      :     0.013668
 18 H s       :     0.901851  s :     0.901851
      pz      :     0.023060  p :     0.068021
      px      :     0.021794
      py      :     0.023167
 19 C s       :     2.829034  s :     2.829034
      pz      :     1.071110  p :     3.005626
      px      :     1.002751
      py      :     0.931764
      dz2     :     0.021516  d :     0.118616
      dxz     :     0.011899
      dyz     :     0.033399
      dx2y2   :     0.023599
      dxy     :     0.028202
 20 H s       :     0.914469  s :     0.914469
      pz      :     0.037731  p :     0.066360
      px      :     0.014386
      py      :     0.014243
 21 H s       :     0.905595  s :     0.905595
      pz      :     0.026926  p :     0.066625
      px      :     0.014494
      py      :     0.025205
 22 H s       :     0.884558  s :     0.884558
      pz      :     0.041081  p :     0.069555
      px      :     0.014756
      py      :     0.013717
 23 H s       :     0.889047  s :     0.889047
      pz      :     0.018139  p :     0.068694
      px      :     0.028716
      py      :     0.021839
 24 H s       :     0.900441  s :     0.900441
      pz      :     0.022300  p :     0.071385
      px      :     0.016054
      py      :     0.033031
 25 H s       :     0.898436  s :     0.898436
      pz      :     0.015121  p :     0.069776
      px      :     0.023169
      py      :     0.031486
 26 H s       :     0.904485  s :     0.904485
      pz      :     0.025927  p :     0.063762
      px      :     0.012579
      py      :     0.025256
 27 H s       :     0.919705  s :     0.919705
      pz      :     0.015666  p :     0.065464
      px      :     0.013115
      py      :     0.036683
 28 O s       :     3.413222  s :     3.413222
      pz      :     1.615932  p :     4.613515
      px      :     1.571520
      py      :     1.426063
      dz2     :     0.005315  d :     0.026977
      dxz     :     0.007197
      dyz     :     0.005840
      dx2y2   :     0.004940
      dxy     :     0.003685
 29 H s       :     0.735054  s :     0.735054
      pz      :     0.042649  p :     0.174690
      px      :     0.047043
      py      :     0.084998
 30 H s       :     0.887537  s :     0.887537
      pz      :     0.028252  p :     0.068056
      px      :     0.014920
      py      :     0.024885
 31 H s       :     0.889283  s :     0.889283
      pz      :     0.035470  p :     0.069014
      px      :     0.017203
      py      :     0.016340
 32 H s       :     0.877349  s :     0.877349
      pz      :     0.013327  p :     0.070107
      px      :     0.043161
      py      :     0.013619


                      *****************************
                      * MAYER POPULATION ANALYSIS *
                      *****************************

  NA   - Mulliken gross atomic population
  ZA   - Total nuclear charge
  QA   - Mulliken gross atomic charge
  VA   - Mayer's total valence
  BVA  - Mayer's bonded valence
  FA   - Mayer's free valence

  ATOM       NA         ZA         QA         VA         BVA        FA
  0 C      6.0013     6.0000    -0.0013     3.9060     3.9060    -0.0000
  1 C      6.0107     6.0000    -0.0107     4.2795     4.2795    -0.0000
  2 N      7.2771     7.0000    -0.2771     3.0307     3.0307     0.0000
  3 C      5.7509     6.0000     0.2491     3.8967     3.8967     0.0000
  4 C      6.1328     6.0000    -0.1328     3.9172     3.9172     0.0000
  5 C      6.0034     6.0000    -0.0034     3.8746     3.8746    -0.0000
  6 C      6.0777     6.0000    -0.0777     3.8760     3.8760     0.0000
  7 C      5.8142     6.0000     0.1858     3.8306     3.8306    -0.0000
  8 C      6.0418     6.0000    -0.0418     3.8911     3.8911    -0.0000
  9 C      6.0338     6.0000    -0.0338     3.8795     3.8795     0.0000
 10 H      1.0023     1.0000    -0.0023     0.9943     0.9943     0.0000
 11 H      0.9743     1.0000     0.0257     1.0340     1.0340     0.0000
 12 N      7.3322     7.0000    -0.3322     3.1398     3.1398    -0.0000
 13 C      5.8539     6.0000     0.1461     4.2484     4.2484     0.0000
 14 O      8.2491     8.0000    -0.2491     2.2766     2.2766     0.0000
 15 C      6.0412     6.0000    -0.0412     3.9137     3.9137     0.0000
 16 C      6.0421     6.0000    -0.0421     4.0734     4.0734    -0.0000
[...]
      py      :     0.857798
      dz2     :     0.009954  d :     0.048978
      dxz     :     0.006890
      dyz     :     0.011480
      dx2y2   :     0.010253
      dxy     :     0.010401
 20 H s       :     0.932653  s :     0.932653
      pz      :     0.013509  p :     0.021032
      px      :     0.004172
      py      :     0.003351
 21 H s       :     0.925131  s :     0.925131
      pz      :     0.007569  p :     0.021345
      px      :     0.004183
      py      :     0.009593
 22 H s       :     0.908473  s :     0.908473
      pz      :     0.013519  p :     0.022832
      px      :     0.004598
      py      :     0.004716
 23 H s       :     0.913524  s :     0.913524
      pz      :     0.006953  p :     0.022288
      px      :     0.010050
      py      :     0.005285
 24 H s       :     0.971423  s :     0.971423
      pz      :     0.007459  p :     0.023356
      px      :     0.004729
      py      :     0.011168
 25 H s       :     0.962589  s :     0.962589
      pz      :     0.004881  p :     0.023100
      px      :     0.008193
      py      :     0.010027
 26 H s       :     0.930815  s :     0.930815
      pz      :     0.010759  p :     0.021121
      px      :     0.003689
      py      :     0.006673
 27 H s       :     0.973566  s :     0.973566
      pz      :     0.003990  p :     0.021793
      px      :     0.004146
      py      :     0.013657
 28 O s       :     3.675592  s :     3.675592
      pz      :     1.581101  p :     4.512496
      px      :     1.615299
      py      :     1.316096
      dz2     :     0.002678  d :     0.014313
      dxz     :     0.003849
      dyz     :     0.004482
      dx2y2   :     0.002372
      dxy     :     0.000932
 29 H s       :     0.750198  s :     0.750198
      pz      :     0.017644  p :     0.067264
      px      :     0.016576
      py      :     0.033043
 30 H s       :     0.916384  s :     0.916384
      pz      :     0.009780  p :     0.024149
      px      :     0.005298
      py      :     0.009070
 31 H s       :     0.917873  s :     0.917873
      pz      :     0.011730  p :     0.023237
      px      :     0.006977
      py      :     0.004531
 32 H s       :     0.895024  s :     0.895024
      pz      :     0.005258  p :     0.024632
      px      :     0.014986
      py      :     0.004389


                     *******************************
                     * LOEWDIN POPULATION ANALYSIS *
                     *******************************

----------------------
LOEWDIN ATOMIC CHARGES
----------------------
   0 C :   -0.079894
   1 C :    0.068169
   2 N :   -0.196082
   3 C :    0.021868
   4 C :   -0.054037
   5 C :   -0.023046
   6 C :   -0.059722
   7 C :    0.028656
   8 C :   -0.038573
   9 C :   -0.028664
  10 H :    0.030253
  11 H :    0.038646
  12 N :   -0.046720
  13 C :    0.086602
  14 O :   -0.197041
  15 C :   -0.060317
  16 C :   -0.039715
  17 H :    0.034121
  18 H :    0.033197
  19 C :    0.043284
  20 H :    0.020740
  21 H :    0.028157
  22 H :    0.049042
  23 H :    0.044545
  24 H :    0.029795
  25 H :    0.033022
  26 H :    0.034546
  27 H :    0.014495
  28 O :   -0.049465
  29 H :    0.090225
  30 H :    0.045245
  31 H :    0.043614
  32 H :    0.055054

-------------------------------
LOEWDIN REDUCED ORBITAL CHARGES
-------------------------------
  0 C s       :     2.838005  s :     2.838005
      pz      :     1.066861  p :     3.175053
      px      :     1.077629
      py      :     1.030564
      dz2     :     0.011012  d :     0.066836
      dxz     :     0.009453
      dyz     :     0.018364
      dx2y2   :     0.020095
      dxy     :     0.007911
  1 C s       :     2.848464  s :     2.848464
      pz      :     0.971801  p :     2.851283
      px      :     0.875700
      py      :     1.003782
      dz2     :     0.054610  d :     0.232084
      dxz     :     0.053221
      dyz     :     0.064544
      dx2y2   :     0.033186
      dxy     :     0.026522
  2 N s       :     3.217522  s :     3.217522
      pz      :     1.170300  p :     3.923569
      px      :     1.254982
      py      :     1.498287
      dz2     :     0.013259  d :     0.054990
      dxz     :     0.010551
      dyz     :     0.018794
      dx2y2   :     0.004894
      dxy     :     0.007493
  3 C s       :     2.827810  s :     2.827810
      pz      :     1.004621  p :     3.030534
      px      :     0.985702
      py      :     1.040211
      dz2     :     0.027269  d :     0.119789
      dxz     :     0.023990
      dyz     :     0.021495
      dx2y2   :     0.030962
      dxy     :     0.016073
  4 C s       :     2.856745  s :     2.856745
      pz      :     0.994851  p :     3.091425
      px      :     1.033123
      py      :     1.063451
      dz2     :     0.011317  d :     0.105867
      dxz     :     0.015578
      dyz     :     0.015824
      dx2y2   :     0.031631
      dxy     :     0.031517
  5 C s       :     2.854884  s :     2.854884
      pz      :     0.991844  p :     3.076660
      px      :     1.049343
      py      :     1.035473
      dz2     :     0.009884  d :     0.091502
      dxz     :     0.016589
      dyz     :     0.010339
      dx2y2   :     0.025036
      dxy     :     0.029654
  6 C s       :     2.855287  s :     2.855287
      pz      :     1.022268  p :     3.116165
      px      :     1.060630
      py      :     1.033266
      dz2     :     0.006799  d :     0.088271
      dxz     :     0.016954
      dyz     :     0.009966
      dx2y2   :     0.025061
      dxy     :     0.029490
  7 C s       :     2.828828  s :     2.828828
      pz      :     0.998826  p :     3.002780
      px      :     0.924910
      py      :     1.079044
      dz2     :     0.015423  d :     0.139736
      dxz     :     0.030547
      dyz     :     0.015155
      dx2y2   :     0.044417
      dxy     :     0.034194
  8 C s       :     2.858511  s :     2.858511
      pz      :     0.993695  p :     3.093023
      px      :     1.060309
      py      :     1.039019
      dz2     :     0.009319  d :     0.087038
      dxz     :     0.014776
      dyz     :     0.010772
      dx2y2   :     0.023940
      dxy     :     0.028230
  9 C s       :     2.856827  s :     2.856827
      pz      :     0.989091  p :     3.079640
      px      :     1.059713
      py      :     1.030837
      dz2     :     0.006850  d :     0.092196
      dxz     :     0.016944
      dyz     :     0.010414
      dx2y2   :     0.028241
      dxy     :     0.029747
 10 H s       :     0.903288  s :     0.903288
      pz      :     0.020221  p :     0.066459
      px      :     0.014519
      py      :     0.031720
 11 H s       :     0.883305  s :     0.883305
      pz      :     0.015489  p :     0.078049
      px      :     0.029284
      py      :     0.033276
 12 N s       :     3.067934  s :     3.067934
      pz      :     1.517829  p :     3.915263
      px      :     1.192914
      py      :     1.204520
      dz2     :     0.005936  d :     0.063522
      dxz     :     0.008562
      dyz     :     0.007390
      dx2y2   :     0.018407
      dxy     :     0.023227
 13 C s       :     2.840968  s :     2.840968
      pz      :     0.840346  p :     2.799938
      px      :     0.972695
      py      :     0.986896
      dz2     :     0.022572  d :     0.272493
      dxz     :     0.021939
      dyz     :     0.056063
      dx2y2   :     0.063169
      dxy     :     0.108750
 14 O s       :     3.535338  s :     3.535338
      pz      :     1.438091  p :     4.630292
      px      :     1.722058
      py      :     1.470144
      dz2     :     0.004076  d :     0.031411
      dxz     :     0.000769
      dyz     :     0.008762
      dx2y2   :     0.011144
      dxy     :     0.006660
 15 C s       :     2.844393  s :     2.844393
      pz      :     1.072542  p :     3.131791
      px      :     1.043700
      py      :     1.015549
      dz2     :     0.017486  d :     0.084134
      dxz     :     0.013321
      dyz     :     0.013150
      dx2y2   :     0.022306
      dxy     :     0.017872
 16 C s       :     2.836589  s :     2.836589
      pz      :     1.075056  p :     3.116245
      px      :     1.014758
      py      :     1.026432
      dz2     :     0.016358  d :     0.086880
      dxz     :     0.014797
      dyz     :     0.015465
      dx2y2   :     0.026821
      dxy     :     0.013439
 17 H s       :     0.899723  s :     0.899723
      pz      :     0.034877  p :     0.066156
      px      :     0.015987
      py      :     0.015291
 18 H s       :     0.900689  s :     0.900689
      pz      :     0.026915  p :     0.066115
      px      :     0.019225
      py      :     0.019974
 19 C s       :     2.834408  s :     2.834408
      pz      :     1.053344  p :     3.005645
      px      :     1.014595
      py      :     0.937706
      dz2     :     0.024674  d :     0.116663
      dxz     :     0.014136
      dyz     :     0.028471
      dx2y2   :     0.026357
      dxy     :     0.023025
 20 H s       :     0.914228  s :     0.914228
      pz      :     0.038740  p :     0.065032
      px      :     0.015036
      py      :     0.011256
 21 H s       :     0.906359  s :     0.906359
      pz      :     0.021477  p :     0.065484
      px      :     0.014811
      py      :     0.029196
 22 H s       :     0.883344  s :     0.883344
      pz      :     0.038286  p :     0.067614
      px      :     0.014025
      py      :     0.015302
 23 H s       :     0.888404  s :     0.888404
      pz      :     0.019529  p :     0.067051
      px      :     0.030352
      py      :     0.017169
 24 H s       :     0.900288  s :     0.900288
      pz      :     0.022249  p :     0.069917
      px      :     0.015134
      py      :     0.032533
 25 H s       :     0.898615  s :     0.898615
      pz      :     0.015221  p :     0.068363
      px      :     0.023550
      py      :     0.029592
 26 H s       :     0.902322  s :     0.902322
      pz      :     0.032717  p :     0.063131
      px      :     0.012024
      py      :     0.018390
 27 H s       :     0.920900  s :     0.920900
      pz      :     0.013113  p :     0.064604
      px      :     0.012537
      py      :     0.038954
 28 O s       :     3.418838  s :     3.418838
      pz      :     1.620163  p :     4.603015
      px      :     1.606454
      py      :     1.376398
      dz2     :     0.003872  d :     0.027612
      dxz     :     0.006516
      dyz     :     0.008741
      dx2y2   :     0.005440
      dxy     :     0.003042
 29 H s       :     0.734611  s :     0.734611
      pz      :     0.049575  p :     0.175163
      px      :     0.043112
      py      :     0.082477
 30 H s       :     0.888206  s :     0.888206
      pz      :     0.026934  p :     0.066550
      px      :     0.013774
      py      :     0.025842
 31 H s       :     0.889159  s :     0.889159
      pz      :     0.033623  p :     0.067227
      px      :     0.019196
      py      :     0.014407
 32 H s       :     0.877353  s :     0.877353
      pz      :     0.013324  p :     0.067593
      px      :     0.041475
      py      :     0.012794


                      *****************************
                      * MAYER POPULATION ANALYSIS *
                      *****************************

  NA   - Mulliken gross atomic population
  ZA   - Total nuclear charge
  QA   - Mulliken gross atomic charge
  VA   - Mayer's total valence
  BVA  - Mayer's bonded valence
  FA   - Mayer's free valence

  ATOM       NA         ZA         QA         VA         BVA        FA
  0 C      6.0150     6.0000    -0.0150     3.9114     3.9114    -0.0000
  1 C      5.9984     6.0000     0.0016     4.2598     4.2598    -0.0000
  2 N      7.2732     7.0000    -0.2732     3.0341     3.0341    -0.0000
  3 C      5.7776     6.0000     0.2224     3.9086     3.9086     0.0000
  4 C      6.1295     6.0000    -0.1295     3.9141     3.9141     0.0000
  5 C      6.0151     6.0000    -0.0151     3.8832     3.8832     0.0000
  6 C      6.0880     6.0000    -0.0880     3.8753     3.8753     0.0000
  7 C      5.8169     6.0000     0.1831     3.8357     3.8357    -0.0000
  8 C      6.0538     6.0000    -0.0538     3.8820     3.8820     0.0000
  9 C      6.0358     6.0000    -0.0358     3.8738     3.8738    -0.0000
 10 H      0.9942     1.0000     0.0058     0.9933     0.9933    -0.0000
 11 H      0.9627     1.0000     0.0373     1.0416     1.0416    -0.0000
 12 N      7.3463     7.0000    -0.3463     3.1415     3.1415    -0.0000
 13 C      5.8413     6.0000     0.1587     4.2280     4.2280    -0.0000
 14 O      8.2458     8.0000    -0.2458     2.2785     2.2785    -0.0000
 15 C      6.0461     6.0000    -0.0461     3.9176     3.9176    -0.0000
 16 C      6.0469     6.0000    -0.0469     4.0590     4.0590     0.0000
 17 H      0.9484     1.0000     0.0516     0.9763     0.9763    -0.0000
 18 H      0.9544     1.0000     0.0456     0.9826     0.9826    -0.0000
 19 C      5.8943     6.0000     0.1057     3.9378     3.9378    -0.0000
 20 H      0.9537     1.0000     0.0463     0.9738     0.9738    -0.0000
 21 H      0.9465     1.0000     0.0535     0.9790     0.9790    -0.0000
 22 H      0.9313     1.0000     0.0687     0.9868     0.9868     0.0000
 23 H      0.9358     1.0000     0.0642     0.9984     0.9984     0.0000
 24 H      0.9948     1.0000     0.0052     0.9942     0.9942     0.0000
 25 H      0.9857     1.0000     0.0143     1.0081     1.0081    -0.0000
 26 H      0.9519     1.0000     0.0481     0.9839     0.9839     0.0000
 27 H      0.9954     1.0000     0.0046     0.9934     0.9934    -0.0000
 28 O      8.2024     8.0000    -0.2024     2.2387     2.2387     0.0000
 29 H      0.8175     1.0000     0.1825     1.0362     1.0362    -0.0000
 30 H      0.9405     1.0000     0.0595     0.9986     0.9986    -0.0000
 31 H      0.9411     1.0000     0.0589     1.0064     1.0064    -0.0000
 32 H      0.9197     1.0000     0.0803     1.0015     1.0015     0.0000

  Mayer bond orders larger than 0.100000
B(  0-C ,  1-C ) :   1.0361 B(  0-C , 30-H ) :   0.9570 B(  0-C , 31-H ) :   0.9531 
B(  0-C , 32-H ) :   0.9515 B(  1-C ,  2-N ) :   1.8568 B(  1-C , 28-O ) :   1.2246 
B(  2-N ,  3-C ) :   1.0223 B(  3-C ,  4-C ) :   1.0024 B(  3-C , 26-H ) :   0.9315 
B(  3-C , 27-H ) :   0.9390 B(  4-C ,  5-C ) :   1.4018 B(  4-C ,  9-C ) :   1.3867 
B(  5-C ,  6-C ) :   1.3898 B(  5-C , 25-H ) :   0.9879 B(  6-C ,  7-C ) :   1.3545 
B(  6-C , 24-H ) :   0.9891 B(  7-C ,  8-C ) :   1.3911 B(  7-C , 12-N ) :   0.9847 
B(  8-C ,  9-C ) :   1.3891 B(  8-C , 11-H ) :   0.9814 B(  9-C , 10-H ) :   0.9893 
B( 12-N , 13-C ) :   1.1018 B( 12-N , 19-C ) :   0.9475 B( 13-C , 14-O ) :   2.0752 
B( 13-C , 15-C ) :   0.9754 B( 15-C , 16-C ) :   1.0713 B( 15-C , 22-H ) :   0.9306 
B( 15-C , 23-H ) :   0.9461 B( 16-C , 17-H ) :   0.9528 B( 16-C , 18-H ) :   0.9520 
B( 16-C , 19-C ) :   1.0498 B( 19-C , 20-H ) :   0.9501 B( 19-C , 21-H ) :   0.9545 
B( 28-O , 29-H ) :   0.9495 

-------
TIMINGS
-------

Total SCF time: 0 days 0 hours 3 min 18 sec 

Total time                  ....     198.764 sec
Sum of individual times     ....     198.478 sec  ( 99.9%)

Fock matrix formation       ....     195.216 sec  ( 98.2%)
  XC integration            ....       7.407 sec  (  3.8% of F)
    Basis function eval.    ....       2.261 sec  ( 30.5% of XC)
    Density eval.           ....       1.467 sec  ( 19.8% of XC)
    XC-Functional eval.     ....       1.717 sec  ( 23.2% of XC)
    XC-Potential eval.      ....       1.758 sec  ( 23.7% of XC)
Diagonalization             ....       0.016 sec  (  0.0%)
Density matrix formation    ....       0.017 sec  (  0.0%)
Population analysis         ....       0.012 sec  (  0.0%)
Initial guess               ....       0.015 sec  (  0.0%)
Orbital Transformation      ....       0.000 sec  (  0.0%)
Orbital Orthonormalization  ....       0.011 sec  (  0.0%)
DIIS solution               ....       0.004 sec  (  0.0%)
SOSCF solution              ....       0.073 sec  (  0.0%)
Grid generation             ....       3.125 sec  (  1.6%)


-------------------------------------------------------------------------------
                          DFT DISPERSION CORRECTION                            
                                                                               
                              DFTD3 V3.1  Rev 1                                
                              USING zero damping                               
-------------------------------------------------------------------------------
The omegaB97X-D3 functional is recognized. Fit by Chai et al.
Active option DFTDOPT                   ...         3   

molecular C6(AA) [au] = 10916.798739 


            DFT-D V3
 parameters
 s6 scaling factor         :     1.0000 
 rs6 scaling factor        :     1.2810 
 s8 scaling factor         :     1.0000 
 rs8 scaling factor        :     1.0940 
 Damping factor alpha6     :    14.0000 
 Damping factor alpha8     :    16.0000 
 ad hoc parameters k1-k3   :    16.0000     1.3333    -4.0000 

 Edisp/kcal,au: -8.425925536220  -0.013427565616 
 E6   /kcal   :  -3.793271422 
 E8   /kcal   :  -4.632654114 
 % E8         :  54.980952468 

-------------------------   ----------------
Dispersion correction           -0.013427566
-------------------------   ----------------


-------------------------   --------------------
FINAL SINGLE POINT ENERGY      -764.238368144570
-------------------------   --------------------

                                *** OPTIMIZATION RUN DONE ***

                            ***************************************
                            *     ORCA property calculations      *
                            ***************************************

                                    ---------------------
                                    Active property flags
                                    ---------------------
   (+) Dipole Moment


------------------------------------------------------------------------------
                       ORCA ELECTRIC PROPERTIES CALCULATION
------------------------------------------------------------------------------

Dipole Moment Calculation                       ... on
Quadrupole Moment Calculation                   ... off
Polarizability Calculation                      ... off
GBWName                                         ... 039997072.gbw
Electron density file                           ... 039997072.scfp
The origin for moment calculation is the CENTER OF MASS  = ( 0.049761,  0.019005  0.104193)

-------------
DIPOLE MOMENT
-------------
                                X             Y             Z
Electronic contribution:     -2.04143      -0.98520       2.14275
Nuclear contribution   :      2.57889       1.90569      -2.63635
                        -----------------------------------------
Total Dipole Moment    :      0.53746       0.92049      -0.49359
                        -----------------------------------------
Magnitude (a.u.)       :      1.17465
Magnitude (Debye)      :      2.98571



--------------------
Rotational spectrum 
--------------------
 
Rotational constants in cm-1:     0.040421     0.006504     0.006217 
Rotational constants in MHz :  1211.776449   194.983875   186.394108 

 Dipole components along the rotational axes: 
x,y,z [a.u.] :     0.517243     1.053043    -0.057890 
x,y,z [Debye]:     1.314728     2.676623    -0.147145 

 

Timings for individual modules:

Sum of individual times         ...     4298.946 sec (=  71.649 min)
GTO integral calculation        ...        4.210 sec (=   0.070 min)   0.1 %
SCF iterations                  ...     2923.426 sec (=  48.724 min)  68.0 %
SCF Gradient evaluation         ...     1368.231 sec (=  22.804 min)  31.8 %
Geometry relaxation             ...        3.079 sec (=   0.051 min)   0.1 %
                             ****ORCA TERMINATED NORMALLY****
TOTAL RUN TIME: 0 days 1 hours 11 minutes 41 seconds 48 msec
