
                                 *****************
                                 * O   R   C   A *
                                 *****************

           --- An Ab Initio, DFT and Semiempirical electronic structure package ---

                  #######################################################
                  #                        -***-                        #
                  #          Department of theory and spectroscopy      #
                  #               Directorship: Frank Neese             #
                  #        Max Planck Institute fuer Kohlenforschung    #
                  #                Kaiser Wilhelm Platz 1               #
                  #                 D-45470 Muelheim/Ruhr               #
                  #                      Germany                        #
                  #                                                     #
                  #                  All rights reserved                #
                  #                        -***-                        #
                  #######################################################


                         Program Version 4.2.0 -  RELEASE  -


 With contributions from (in alphabetic order):
   Daniel Aravena         : Magnetic Suceptibility
   Michael Atanasov       : Ab Initio Ligand Field Theory (pilot matlab implementation)
   Alexander A. Auer      : GIAO ZORA, VPT2
   Ute Becker             : Parallelization
   Giovanni Bistoni       : ED, misc. LED, open-shell LED, HFLED
   Martin Brehm           : Molecular dynamics
   Dmytro Bykov           : SCF Hessian
   Vijay G. Chilkuri      : MRCI spin determinant printing, contributions to CSF-ICE
   Dipayan Datta          : RHF DLPNO-CCSD density
   Achintya Kumar Dutta   : EOM-CC, STEOM-CC
   Dmitry Ganyushin       : Spin-Orbit,Spin-Spin,Magnetic field MRCI
   Miquel Garcia          : C-PCM Hessian, Gaussian charge scheme
   Yang Guo               : DLPNO-NEVPT2, CIM, IAO-localization
   Andreas Hansen         : Spin unrestricted coupled pair/coupled cluster methods
   Benjamin Helmich-Paris : CASSCF linear response (MC-RPA)
   Lee Huntington         : MR-EOM, pCC
   Robert Izsak           : Overlap fitted RIJCOSX, COSX-SCS-MP3, EOM
   Christian Kollmar      : KDIIS, OOCD, Brueckner-CCSD(T), CCSD density
   Simone Kossmann        : Meta GGA functionals, TD-DFT gradient, OOMP2, MP2 Hessian
   Martin Krupicka        : AUTO-CI
   Lucas Lang             : DCDCAS
   Dagmar Lenk            : GEPOL surface, SMD
   Dimitrios Liakos       : Extrapolation schemes; Compound Job, initial MDCI parallelization
   Dimitrios Manganas     : Further ROCIS development; embedding schemes
   Dimitrios Pantazis     : SARC Basis sets
   Taras Petrenko         : DFT Hessian,TD-DFT gradient, ASA, ECA, R-Raman, ABS, FL, XAS/XES, NRVS
   Peter Pinski           : DLPNO-MP2, DLPNO-MP2 Gradient
   Christoph Reimann      : Effective Core Potentials
   Marius Retegan         : Local ZFS, SOC
   Christoph Riplinger    : Optimizer, TS searches, QM/MM, DLPNO-CCSD(T), (RO)-DLPNO pert. Triples
   Tobias Risthaus        : Range-separated hybrids, TD-DFT gradient, RPA, STAB
   Michael Roemelt        : Original ROCIS implementation
   Masaaki Saitow         : Open-shell DLPNO-CCSD energy and density
   Barbara Sandhoefer     : DKH picture change effects
   Avijit Sen             : IP-ROCIS
   Kantharuban Sivalingam : CASSCF convergence, NEVPT2, FIC-MRCI
   Bernardo de Souza      : ESD, SOC TD-DFT
   Georgi Stoychev        : AutoAux, RI-MP2 NMR
   Willem Van den Heuvel  : Paramagnetic NMR
   Boris Wezisla          : Elementary symmetry handling
   Frank Wennmohs         : Technical directorship


 We gratefully acknowledge several colleagues who have allowed us to
 interface, adapt or use parts of their codes:
   Stefan Grimme, W. Hujo, H. Kruse,             : VdW corrections, initial TS optimization,
                  C. Bannwarth                     DFT functionals, gCP, sTDA/sTD-DF
   Ed Valeev, F. Pavosevic, A. Kumar             : LibInt (2-el integral package), F12 methods
   Garnet Chan, S. Sharma, J. Yang, R. Olivares  : DMRG
   Ulf Ekstrom                                   : XCFun DFT Library
   Mihaly Kallay                                 : mrcc  (arbitrary order and MRCC methods)
   Andreas Klamt, Michael Diedenhofen            : otool_cosmo (COSMO solvation model)
   Jiri Pittner, Ondrej Demel                    : Mk-CCSD
   Frank Weinhold                                : gennbo (NPA and NBO analysis)
   Christopher J. Cramer and Donald G. Truhlar   : smd solvation model
   Lars Goerigk                                  : TD-DFT with DH, B97 family of functionals
   V. Asgeirsson, H. Jonsson                     : NEB implementation
   FAccTs GmbH                                   : IRC, NEB, NEB-TS, Multilevel, MM, QM/MM, CI optimization
   S Lehtola, MJT Oliveira, MAL Marques          : LibXC Library


 Your calculation uses the libint2 library for the computation of 2-el integrals
 For citations please refer to: http://libint.valeyev.net

 Your ORCA version has been built with support for libXC version: 4.2.3
 For citations please refer to: https://tddft.org/programs/libxc/

 This ORCA versions uses:
   CBLAS   interface :  Fast vector & matrix operations
   LAPACKE interface :  Fast linear algebra routines
   SCALAPACK package :  Parallel linear algebra routines


Your calculation utilizes the atom-pairwise dispersion correction
with the zero-damping scheme (D30)
Cite in your paper:
S.Grimme, J.Antony, S.Ehrlich and H.Krieg, J.Chem.Phys., 132, (2010), 154104 
   

XCFun DFT library Copyright 2009-2010 Ulf Ekstrom and contributors.
See http://admol.org/xcfun for more information. This is free soft-
ware; see the source code for copying conditions. There is ABSOLUTELY
NO WARRANTY; not even for MERCHANTABILITY or FITNESS FOR A PARTICULAR
PURPOSE. For details see the documentation. Scientific users of this 
library should cite U. Ekstrom, L. Visscher, R. Bast, A. J. Thorvald-
sen and K. Ruud; J.Chem.Theor.Comp. 2010, DOI: 10.1021/ct100117s
XCFun Version 0.99 
----- Orbital basis set information -----
Your calculation utilizes the basis: def2-SVP
   F. Weigend and R. Ahlrichs, Phys. Chem. Chem. Phys. 7, 3297 (2005).

================================================================================
                                        WARNINGS
                       Please study these warnings very carefully!
================================================================================


WARNING: Geometry Optimization
  ===> : Switching off AutoStart
         For restart on a previous wavefunction, please use MOREAD

INFO   : the flag for use of LIBINT has been found!

================================================================================
                                       INPUT FILE
================================================================================
NAME = 042259589.inp
|  1> # ORCA input file
|  2> # -41.25998510
|  3> ! wB97X-D3 def2-SVP Opt
|  4> * xyz 0 1
|  5>    C       -3.82700        -0.65010         0.27530
|  6>    C       -3.26950         0.47120         0.86590
|  7>    C       -1.94010         0.78890         0.66250
|  8>    C       -1.14330        -0.01680        -0.14920
|  9>    C       -1.70850        -1.14400        -0.74400
| 10>    C       -3.03910        -1.45360        -0.52930
| 11>    H       -3.46060        -2.33040        -0.99890
| 12>    H       -1.11970        -1.78180        -1.38420
| 13>    N        0.21060         0.28230        -0.35910
| 14>    C        0.80340         1.49860        -0.19340
| 15>    O        0.27570         2.52520         0.16410
| 16>    C        2.27290         1.35200        -0.56780
| 17>    C        2.51820        -0.15170        -0.54260
| 18>    C        2.97950        -0.61680         0.84680
| 19>    O        3.10400        -2.01420         0.93300
| 20>    H        3.79550        -2.30720         0.32890
| 21>    H        3.92720        -0.12340         1.10460
| 22>    H        2.23130        -0.34170         1.59410
| 23>    H        3.25390        -0.46920        -1.28710
| 24>    C        1.13120        -0.72350        -0.85710
| 25>    H        0.99950        -0.86640        -1.93680
| 26>    H        0.97380        -1.67630        -0.34500
| 27>    H        2.41250         1.76950        -1.56690
| 28>    H        2.90050         1.91130         0.12420
| 29>    H       -1.51820         1.66540         1.12350
| 30>    H       -3.87310         1.10610         1.49730
| 31>    H       -4.86540        -0.89530         0.43950
| 32> *
| 33> 
| 34>                          ****END OF INPUT****
================================================================================

                       *****************************
                       * Geometry Optimization Run *
                       *****************************

Geometry optimization settings:
Update method            Update   .... BFGS
Choice of coordinates    CoordSys .... Z-matrix Internals
Initial Hessian          InHess   .... Almoef's Model

Convergence Tolerances:
Energy Change            TolE     ....  5.0000e-06 Eh
Max. Gradient            TolMAXG  ....  3.0000e-04 Eh/bohr
RMS Gradient             TolRMSG  ....  1.0000e-04 Eh/bohr
Max. Displacement        TolMAXD  ....  4.0000e-03 bohr
RMS Displacement         TolRMSD  ....  2.0000e-03 bohr
Strict Convergence                ....  False
------------------------------------------------------------------------------
                        ORCA OPTIMIZATION COORDINATE SETUP
------------------------------------------------------------------------------

The optimization will be done in new redundant internal coordinates
Making redundant internal coordinates   ...  (new redundants) done
Evaluating the initial hessian          ...  (Almloef) done
Evaluating the coordinates              ...  done
Calculating the B-matrix                .... done
Calculating the G-matrix                .... done
Diagonalizing the G-matrix              .... done
Small eigenvalue found = 1.162e-02
Small eigenvalue found = 2.871e-02
The first mode is                       ....   76
The number of degrees of freedom        ....   75

    -----------------------------------------------------------------
                    Redundant Internal Coordinates


    -----------------------------------------------------------------
         Definition                    Initial Value    Approx d2E/dq
    -----------------------------------------------------------------
      1. B(C   1,C   0)                  1.3845         0.637474   
      2. B(C   2,C   1)                  1.3819         0.643700   
      3. B(C   3,C   2)                  1.3939         0.615955   
      4. B(C   4,C   3)                  1.3942         0.615211   
      5. B(C   5,C   4)                  1.3829         0.641280   
      6. B(C   5,C   0)                  1.3834         0.640144   
      7. B(H   6,C   5)                  1.0803         0.373216   
      8. B(H   7,C   4)                  1.0786         0.375531   
      9. B(N   8,C   3)                  1.4023         0.534791   
     10. B(C   9,N   8)                  1.3632         0.617545   
     11. B(O  10,C   9)                  1.2084         1.090534   
     12. B(C  11,C   9)                  1.5235         0.382582   
     13. B(C  12,C  11)                  1.5238         0.382202   
     14. B(C  13,C  12)                  1.5361         0.365320   
     15. B(O  14,C  13)                  1.4056         0.528466   
     16. B(H  15,O  14)                  0.9638         0.512702   
     17. B(H  16,C  13)                  1.0991         0.348250   
     18. B(H  17,C  13)                  1.0927         0.356578   
     19. B(H  18,C  12)                  1.0938         0.355142   
     20. B(C  19,C  12)                  1.5329         0.369681   
     21. B(C  19,N   8)                  1.4516         0.446269   
     22. B(H  20,C  19)                  1.0970         0.350894   
     23. B(H  21,C  19)                  1.0931         0.356033   
     24. B(H  22,C  11)                  1.0918         0.357746   
     25. B(H  23,C  11)                  1.0888         0.361644   
     26. B(H  24,C   2)                  1.0765         0.378460   
     27. B(H  25,C   1)                  1.0799         0.373767   
     28. B(H  26,C   0)                  1.0795         0.374237   
     29. A(C   5,C   0,H  26)          120.2907         0.357153   
     30. A(C   1,C   0,C   5)          119.2851         0.438766   
     31. A(C   1,C   0,H  26)          120.4241         0.356899   
     32. A(C   0,C   1,C   2)          120.7155         0.439205   
     33. A(C   2,C   1,H  25)          119.2501         0.357413   
     34. A(C   0,C   1,H  25)          120.0337         0.356823   
     35. A(C   1,C   2,C   3)          120.1823         0.436493   
     36. A(C   3,C   2,H  24)          119.7354         0.355501   
     37. A(C   1,C   2,H  24)          120.0799         0.358172   
     38. A(C   4,C   3,N   8)          119.9980         0.419384   
     39. A(C   2,C   3,C   4)          118.9486         0.432951   
     40. A(C   2,C   3,N   8)          121.0491         0.419474   
     41. A(C   3,C   4,C   5)          120.3196         0.436102   
     42. A(C   5,C   4,H   7)          119.0138         0.357470   
     43. A(C   3,C   4,H   7)          120.6643         0.354960   
     44. A(C   0,C   5,H   6)          120.1345         0.356987   
     45. A(C   0,C   5,C   4)          120.5482         0.439237   
     46. A(C   4,C   5,H   6)          119.3172         0.357095   
     47. A(C   3,N   8,C  19)          121.0546         0.393700   
     48. A(C   3,N   8,C   9)          126.2959         0.416946   
     49. A(C   9,N   8,C  19)          112.5907         0.403786   
     50. A(N   8,C   9,C  11)          107.6812         0.395527   
     51. A(N   8,C   9,O  10)          127.1630         0.474340   
     52. A(O  10,C   9,C  11)          125.1467         0.437632   
     53. A(H  22,C  11,H  23)          108.1473         0.290735   
     54. A(C  12,C  11,H  23)          113.8033         0.325767   
     55. A(C   9,C  11,H  23)          110.5087         0.325820   
     56. A(C  12,C  11,H  22)          111.8335         0.325187   
     57. A(C   9,C  11,H  22)          108.1448         0.325240   
     58. A(C   9,C  11,C  12)          104.2507         0.366264   
     59. A(C  13,C  12,C  19)          110.1433         0.361321   
     60. A(C  11,C  12,C  19)          102.6536         0.364120   
     61. A(C  13,C  12,H  18)          109.0132         0.322398   
     62. A(C  11,C  12,H  18)          112.5492         0.324797   
     63. A(C  11,C  12,C  13)          111.2289         0.363382   
     64. A(H  18,C  12,C  19)          111.1424         0.323026   
     65. A(H  16,C  13,H  17)          108.4803         0.288871   
     66. A(O  14,C  13,H  17)          105.6054         0.340882   
     67. A(C  12,C  13,H  17)          109.6786         0.322611   
     68. A(O  14,C  13,H  16)          110.8264         0.339539   
     69. A(C  12,C  13,H  16)          109.5831         0.321365   
     70. A(C  12,C  13,O  14)          112.5253         0.381832   
     71. A(C  13,O  14,H  15)          109.1073         0.359273   
     72. A(H  20,C  19,H  21)          109.2841         0.289145   
     73. A(C  12,C  19,H  21)          111.0589         0.323159   
     74. A(N   8,C  19,H  21)          110.6046         0.331342   
     75. A(C  12,C  19,H  20)          111.0477         0.322389   
     76. A(N   8,C  19,H  20)          110.5953         0.330546   
     77. A(N   8,C  19,C  12)          104.1815         0.371596   
     78. D(H  25,C   1,C   0,H  26)      0.1346         0.028219   
     79. D(C   2,C   1,C   0,C   5)     -0.2125         0.028219   
     80. D(C   2,C   1,C   0,H  26)    179.8378         0.028219   
     81. D(H  25,C   1,C   0,C   5)   -179.9157         0.028219   
     82. D(H  24,C   2,C   1,C   0)    179.7516         0.028811   
     83. D(H  24,C   2,C   1,H  25)     -0.5429         0.028811   
     84. D(C   3,C   2,C   1,H  25)   -179.9762         0.028811   
     85. D(C   3,C   2,C   1,C   0)      0.3183         0.028811   
     86. D(N   8,C   3,C   2,H  24)      1.1027         0.026233   
     87. D(C   4,C   3,C   2,H  24)   -179.6500         0.026233   
     88. D(N   8,C   3,C   2,C   1)   -179.4620         0.026233   
     89. D(C   4,C   3,C   2,C   1)     -0.2147         0.026233   
     90. D(H   7,C   4,C   3,C   2)    179.4516         0.026166   
     91. D(C   5,C   4,C   3,C   2)      0.0112         0.026166   
     92. D(C   5,C   4,C   3,N   8)    179.2666         0.026166   
     93. D(H   7,C   4,C   3,N   8)     -1.2930         0.026166   
     94. D(H   6,C   5,C   4,H   7)      0.4974         0.028580   
     95. D(C   0,C   5,C   4,C   3)      0.0928         0.028580   
     96. D(H   6,C   5,C   4,C   3)    179.9470         0.028580   
     97. D(H   6,C   5,C   0,H  26)      0.1034         0.028472   
     98. D(C   0,C   5,C   4,H   7)   -179.3569         0.028580   
     99. D(C   4,C   5,C   0,C   1)      0.0067         0.028472   
    100. D(C   4,C   5,C   0,H  26)    179.9565         0.028472   
    101. D(H   6,C   5,C   0,C   1)   -179.8464         0.028472   
    102. D(C  19,N   8,C   3,C   4)    -17.5539         0.022731   
    103. D(C  19,N   8,C   3,C   2)    161.6856         0.022731   
    104. D(C   9,N   8,C   3,C   4)    159.4443         0.022731   
    105. D(C   9,N   8,C   3,C   2)    -21.3162         0.022731   
    106. D(C  11,C   9,N   8,C   3)   -178.6924         0.030862   
    107. D(O  10,C   9,N   8,C  19)    177.4622         0.030862   
    108. D(O  10,C   9,N   8,C   3)      0.2472         0.030862   
    109. D(C  11,C   9,N   8,C  19)     -1.4775         0.030862   
    110. D(H  23,C  11,C   9,O  10)     41.4092         0.010913   
    111. D(H  22,C  11,C   9,O  10)    -76.7890         0.010913   
    112. D(H  22,C  11,C   9,N   8)    102.1776         0.010913   
    113. D(C  12,C  11,C   9,O  10)    164.0652         0.010913   
    114. D(H  23,C  11,C   9,N   8)   -139.6242         0.010913   
    115. D(C  12,C  11,C   9,N   8)    -16.9682         0.010913   
    116. D(C  19,C  12,C  11,H  22)    -89.3117         0.011636   
    117. D(C  19,C  12,C  11,C   9)     27.2969         0.011636   
    118. D(H  18,C  12,C  11,H  23)    -92.6612         0.011636   
    119. D(H  18,C  12,C  11,H  22)     30.2582         0.011636   
    120. D(H  18,C  12,C  11,C   9)    146.8668         0.011636   
    121. D(C  13,C  12,C  11,H  23)     30.0039         0.011636   
    122. D(C  13,C  12,C  11,H  22)    152.9233         0.011636   
    123. D(C  19,C  12,C  11,H  23)    147.7689         0.011636   
    124. D(C  13,C  12,C  11,C   9)    -90.4681         0.011636   
    125. D(H  17,C  13,C  12,C  19)    -55.4521         0.010686   
    126. D(H  17,C  13,C  12,C  11)     57.6768         0.010686   
    127. D(H  16,C  13,C  12,C  19)   -174.4341         0.010686   
    128. D(H  16,C  13,C  12,H  18)     63.3745         0.010686   
    129. D(H  16,C  13,C  12,C  11)    -61.3052         0.010686   
    130. D(O  14,C  13,C  12,C  19)     61.7811         0.010686   
    131. D(H  17,C  13,C  12,H  18)   -177.6435         0.010686   
    132. D(O  14,C  13,C  12,H  18)    -60.4103         0.010686   
    133. D(O  14,C  13,C  12,C  11)    174.9100         0.010686   
    134. D(H  15,O  14,C  13,H  17)   -176.5342         0.022172   
    135. D(H  15,O  14,C  13,H  16)    -59.2527         0.022172   
    136. D(H  15,O  14,C  13,C  12)     63.8392         0.022172   
    137. D(H  20,C  19,N   8,C   9)   -100.1922         0.016986   
    138. D(H  20,C  19,N   8,C   3)     77.1877         0.016986   
    139. D(C  12,C  19,N   8,C   9)     19.1934         0.016986   
    140. D(C  12,C  19,N   8,C   3)   -163.4267         0.016986   
    141. D(H  21,C  19,C  12,H  18)     92.1802         0.010926   
    142. D(H  21,C  19,C  12,C  13)    -28.7440         0.010926   
    143. D(H  21,C  19,C  12,C  11)   -147.2752         0.010926   
    144. D(H  20,C  19,C  12,H  18)    -29.6469         0.010926   
    145. D(H  20,C  19,C  12,C  13)   -150.5711         0.010926   
    146. D(H  20,C  19,C  12,C  11)     90.8977         0.010926   
    147. D(N   8,C  19,C  12,H  18)   -148.7250         0.010926   
    148. D(N   8,C  19,C  12,C  13)     90.3508         0.010926   
    149. D(N   8,C  19,C  12,C  11)    -28.1804         0.010926   
    150. D(H  21,C  19,N   8,C   9)    138.5968         0.016986   
    151. D(H  21,C  19,N   8,C   3)    -44.0233         0.016986   
    -----------------------------------------------------------------

Number of atoms                         .... 27
Number of degrees of freedom            .... 151

         *************************************************************
         *                GEOMETRY OPTIMIZATION CYCLE   1            *
         *************************************************************
---------------------------------
CARTESIAN COORDINATES (ANGSTROEM)
---------------------------------
  C     -3.827000   -0.650100    0.275300
  C     -3.269500    0.471200    0.865900
  C     -1.940100    0.788900    0.662500
  C     -1.143300   -0.016800   -0.149200
  C     -1.708500   -1.144000   -0.744000
  C     -3.039100   -1.453600   -0.529300
  H     -3.460600   -2.330400   -0.998900
  H     -1.119700   -1.781800   -1.384200
  N      0.210600    0.282300   -0.359100
  C      0.803400    1.498600   -0.193400
  O      0.275700    2.525200    0.164100
  C      2.272900    1.352000   -0.567800
  C      2.518200   -0.151700   -0.542600
  C      2.979500   -0.616800    0.846800
  O      3.104000   -2.014200    0.933000
  H      3.795500   -2.307200    0.328900
  H      3.927200   -0.123400    1.104600
  H      2.231300   -0.341700    1.594100
  H      3.253900   -0.469200   -1.287100
  C      1.131200   -0.723500   -0.857100
  H      0.999500   -0.866400   -1.936800
  H      0.973800   -1.676300   -0.345000
  H      2.412500    1.769500   -1.566900
  H      2.900500    1.911300    0.124200
  H     -1.518200    1.665400    1.123500
  H     -3.873100    1.106100    1.497300
  H     -4.865400   -0.895300    0.439500

----------------------------
CARTESIAN COORDINATES (A.U.)
----------------------------
  NO LB      ZA    FRAG     MASS         X           Y           Z
   0 C     6.0000    0    12.011   -7.231982   -1.228511    0.520242
   1 C     6.0000    0    12.011   -6.178460    0.890439    1.636314
   2 C     6.0000    0    12.011   -3.666258    1.490805    1.251944
   3 C     6.0000    0    12.011   -2.160524   -0.031747   -0.281947
   4 C     6.0000    0    12.011   -3.228597   -2.161847   -1.405956
   5 C     6.0000    0    12.011   -5.743067   -2.746906   -1.000232
   6 H     1.0000    0     1.008   -6.539586   -4.403818   -1.887647
   7 H     1.0000    0     1.008   -2.115926   -3.367114   -2.615759
   8 N     7.0000    0    14.007    0.397976    0.533470   -0.678601
   9 C     6.0000    0    12.011    1.518206    2.831944   -0.365473
  10 O     8.0000    0    15.999    0.520997    4.771936    0.310104
  11 C     6.0000    0    12.011    4.295159    2.554910   -1.072986
  12 C     6.0000    0    12.011    4.758708   -0.286671   -1.025365
  13 C     6.0000    0    12.011    5.630439   -1.165583    1.600220
  14 O     8.0000    0    15.999    5.865710   -3.806286    1.763114
  15 H     1.0000    0     1.008    7.172456   -4.359976    0.621531
  16 H     1.0000    0     1.008    7.421332   -0.233192    2.087391
  17 H     1.0000    0     1.008    4.216546   -0.645719    3.012412
  18 H     1.0000    0     1.008    6.148980   -0.886660   -2.432267
  19 C     6.0000    0    12.011    2.137658   -1.367217   -1.619684
  20 H     1.0000    0     1.008    1.888781   -1.637259   -3.660022
  21 H     1.0000    0     1.008    1.840215   -3.167748   -0.651956
  22 H     1.0000    0     1.008    4.558964    3.343870   -2.961012
  23 H     1.0000    0     1.008    5.481151    3.611834    0.234704
  24 H     1.0000    0     1.008   -2.868982    3.147150    2.123107
  25 H     1.0000    0     1.008   -7.319098    2.090226    2.829487
  26 H     1.0000    0     1.008   -9.194274   -1.691872    0.830535

--------------------------------
INTERNAL COORDINATES (ANGSTROEM)
--------------------------------
 C      0   0   0     0.000000000000     0.00000000     0.00000000
 C      1   0   0     1.384531798118     0.00000000     0.00000000
 C      2   1   0     1.381886106016   120.71551499     0.00000000
 C      3   2   1     1.393879341981   120.18233166     0.31834049
 C      4   3   2     1.394208707475   118.94856689   359.78528266
 C      5   4   3     1.382911642152   120.31959942     0.00000000
 H      6   5   4     1.080261380408   119.31718239   179.94700482
 H      5   4   3     1.078577915591   120.66428917   179.45161727
 N      4   3   2     1.402342336949   121.04910498   180.53795044
 C      9   4   3     1.363177912086   126.29589083   338.68381364
 O     10   9   4     1.208379534749   127.16302941     0.24724672
 C     10   9   4     1.523514742298   107.68116305   181.30757474
 C     12  10   9     1.523785030770   104.25073375   343.03183661
 C     13  12  10     1.536082048590   111.22890724   269.53187996
 O     14  13  12     1.405580823005   112.52533259   174.91000107
 H     15  14  13     0.963824703979   109.10731674    63.83918197
 H     14  13  12     1.099108588812   109.58310820   298.69479487
 H     14  13  12     1.092675862276   109.67864006    57.67680158
 H     13  12  10     1.093773738028   112.54917201   146.86681117
 C      9   4   3     1.451599807109   121.05464639   161.68557830
 H     20   9   4     1.097049401805   110.59526363    77.18769499
 H     20   9   4     1.093091492054   110.60462181   315.97667921
 H     12  10   9     1.091785336044   108.14478924   102.17755066
 H     12  10   9     1.088835272206   110.50870993   220.37577963
 H      3   2   1     1.076463125239   120.07990088   179.75162355
 H      2   1   3     1.079859680699   120.03368847   180.29679688
 H      1   2   3     1.079518059136   120.42411324   179.83775892

---------------------------
INTERNAL COORDINATES (A.U.)
---------------------------
 C      0   0   0     0.000000000000     0.00000000     0.00000000
 C      1   0   0     2.616385922149     0.00000000     0.00000000
 C      2   1   0     2.611386288641   120.71551499     0.00000000
 C      3   2   1     2.634050220074   120.18233166     0.31834049
 C      4   3   2     2.634672630657   118.94856689   359.78528266
 C      5   4   3     2.613324271079   120.31959942     0.00000000
 H      6   5   4     2.041398162022   119.31718239   179.94700482
 H      5   4   3     2.038216874562   120.66428917   179.45161727
 N      4   3   2     2.650042962837   121.04910498   180.53795044
 C      9   4   3     2.576032925654   126.29589083   338.68381364
 O     10   9   4     2.283506386511   127.16302941     0.24724672
 C     10   9   4     2.879025623935   107.68116305   181.30757474
 C     12  10   9     2.879536395125   104.25073375   343.03183661
 C     13  12  10     2.902774391068   111.22890724   269.53187996
 O     14  13  12     2.656162814571   112.52533259   174.91000107
 H     15  14  13     1.821364731628   109.10731674    63.83918197
 H     14  13  12     2.077014224295   109.58310820   298.69479487
 H     14  13  12     2.064858132847   109.67864006    57.67680158
 H     13  12  10     2.066932817348   112.54917201   146.86681117
 C      9   4   3     2.743126091490   121.05464639   161.68557830
 H     20   9   4     2.073122924793   110.59526363    77.18769499
 H     20   9   4     2.065643559301   110.60462181   315.97667921
 H     12  10   9     2.063175282154   108.14478924   102.17755066
 H     12  10   9     2.057600469423   110.50870993   220.37577963
 H      3   2   1     2.034220499967   120.07990088   179.75162355
 H      2   1   3     2.040639059585   120.03368847   180.29679688
 H      1   2   3     2.039993488389   120.42411324   179.83775892

---------------------
BASIS SET INFORMATION
---------------------
There are 4 groups of distinct atoms

 Group   1 Type C   : 7s4p1d contracted to 3s2p1d pattern {511/31/1}
 Group   2 Type H   : 4s1p contracted to 2s1p pattern {31/1}
 Group   3 Type N   : 7s4p1d contracted to 3s2p1d pattern {511/31/1}
 Group   4 Type O   : 7s4p1d contracted to 3s2p1d pattern {511/31/1}

Atom   0C    basis set group =>   1
Atom   1C    basis set group =>   1
Atom   2C    basis set group =>   1
Atom   3C    basis set group =>   1
Atom   4C    basis set group =>   1
Atom   5C    basis set group =>   1
Atom   6H    basis set group =>   2
Atom   7H    basis set group =>   2
Atom   8N    basis set group =>   3
Atom   9C    basis set group =>   1
Atom  10O    basis set group =>   4
Atom  11C    basis set group =>   1
Atom  12C    basis set group =>   1
Atom  13C    basis set group =>   1
Atom  14O    basis set group =>   4
Atom  15H    basis set group =>   2
Atom  16H    basis set group =>   2
Atom  17H    basis set group =>   2
Atom  18H    basis set group =>   2
Atom  19C    basis set group =>   1
Atom  20H    basis set group =>   2
Atom  21H    basis set group =>   2
Atom  22H    basis set group =>   2
Atom  23H    basis set group =>   2
Atom  24H    basis set group =>   2
Atom  25H    basis set group =>   2
Atom  26H    basis set group =>   2
------------------------------------------------------------------------------
                           ORCA GTO INTEGRAL CALCULATION
------------------------------------------------------------------------------

                         BASIS SET STATISTICS AND STARTUP INFO

 # of primitive gaussian shells          ...  233
 # of primitive gaussian functions       ...  427
 # of contracted shells                  ...  123
 # of contracted basis functions         ...  261
 Highest angular momentum                ...    2
 Maximum contraction depth               ...    5
 Integral package used                   ... LIBINT
 Integral threshhold            Thresh   ...  2.500e-11
 Primitive cut-off              TCut     ...  2.500e-12


------------------------------ INTEGRAL EVALUATION ----------------------------


 * One electron integrals 
 Pre-screening matrix                    ... done
 Shell pair data                         ... done (   0.002 sec)

-------------------------------------------------------------------------------
                                 ORCA SCF
-------------------------------------------------------------------------------

------------
SCF SETTINGS
------------
Hamiltonian:
 Density Functional     Method          .... DFT(GTOs)
 Exchange Functional    Exchange        .... WB97X-D3
 Correlation Functional Correlation     .... WB97X-D3
 Gradients option       PostSCFGGA      .... off
 Hybrid DFT is turned on
   Fraction HF Exchange ScalHFX         ....  0.195728
   Scaling of DF-GGA-X  ScalDFX         ....  0.000000
   Scaling of DF-GGA-C  ScalDFC         ....  1.000000
   Scaling of DF-LDA-C  ScalLDAC        ....  1.000000
   Perturbative correction              ....  0.000000
   Density functional embedding theory  .... OFF
 Long-range corrected/Screened/Range-Separated Hybrid DFT is turned on
   Amount of maximum screened exact exchange              ....  0.804272
   Range separation parameter mu (erf(mu*r12)/r12)        ....  0.250000


General Settings:
 Integral files         IntName         .... 042259589
 Hartree-Fock type      HFTyp           .... RHF
 Total Charge           Charge          ....    0
 Multiplicity           Mult            ....    1
 Number of Electrons    NEL             ....  102
 Basis Dimension        Dim             ....  261
 Nuclear Repulsion      ENuc            ....    883.5524070711 Eh

Convergence Acceleration:
 DIIS                   CNVDIIS         .... on
   Start iteration      DIISMaxIt       ....    12
   Startup error        DIISStart       ....  0.200000
   # of expansion vecs  DIISMaxEq       ....     5
   Bias factor          DIISBfac        ....   1.050
   Max. coefficient     DIISMaxC        ....  10.000
 Newton-Raphson         CNVNR           .... off
 SOSCF                  CNVSOSCF        .... on
   Start iteration      SOSCFMaxIt      ....   150
   Startup grad/error   SOSCFStart      ....  0.003300
 Level Shifting         CNVShift        .... on
   Level shift para.    LevelShift      ....    0.2500
   Turn off err/grad.   ShiftErr        ....    0.0010
 Zerner damping         CNVZerner       .... off
 Static damping         CNVDamp         .... on
   Fraction old density DampFac         ....    0.7000
   Max. Damping (<1)    DampMax         ....    0.9800
   Min. Damping (>=0)   DampMin         ....    0.0000
   Turn off err/grad.   DampErr         ....    0.1000
 Fernandez-Rico         CNVRico         .... off

SCF Procedure:
 Maximum # iterations   MaxIter         ....   125
 SCF integral mode      SCFMode         .... Direct
   Integral package                     .... LIBINT
 Reset frequency        DirectResetFreq ....    20
 Integral Threshold     Thresh          ....  2.500e-11 Eh
 Primitive CutOff       TCut            ....  2.500e-12 Eh

Convergence Tolerance:
 Convergence Check Mode ConvCheckMode   .... Total+1el-Energy
 Convergence forced     ConvForced      .... 0
 Energy Change          TolE            ....  1.000e-08 Eh
 1-El. energy change                    ....  1.000e-05 Eh
 Orbital Gradient       TolG            ....  1.000e-05
 Orbital Rotation angle TolX            ....  1.000e-05
 DIIS Error             TolErr          ....  5.000e-07


Diagonalization of the overlap matrix:
Smallest eigenvalue                        ... 2.578e-04
Time for diagonalization                   ...    0.068 sec
Threshold for overlap eigenvalues          ... 1.000e-08
Number of eigenvalues below threshold      ... 0
Time for construction of square roots      ...    0.004 sec
Total time needed                          ...    0.073 sec

-------------------
DFT GRID GENERATION
-------------------

General Integration Accuracy     IntAcc      ...  4.340
Radial Grid Type                 RadialGrid  ... Gauss-Chebyshev
Angular Grid (max. acc.)         AngularGrid ... Lebedev-110
Angular grid pruning method      GridPruning ... 3 (G Style)
Weight generation scheme         WeightScheme... Becke
Basis function cutoff            BFCut       ...    1.0000e-11
Integration weight cutoff        WCut        ...    1.0000e-14
Grids for H and He will be reduced by one unit

# of grid points (after initial pruning)     ...  33672 (   0.0 sec)
# of grid points (after weights+screening)   ...  30349 (   0.1 sec)
nearest neighbour list constructed           ...    0.0 sec
Grid point re-assignment to atoms done       ...    0.0 sec
Grid point division into batches done        ...    0.0 sec
Reduced shell lists constructed in    0.3 sec

Total number of grid points                  ...    30349
Total number of batches                      ...      487
Average number of points per batch           ...       62
Average number of grid points per atom       ...     1124
Average number of shells per batch           ...    74.66 (60.70%)
Average number of basis functions per batch  ...   152.05 (58.26%)
Average number of large shells per batch     ...    53.72 (71.94%)
Average number of large basis fcns per batch ...   108.92 (71.64%)
Maximum spatial batch extension              ...  18.51, 20.98, 26.66 au
Average spatial batch extension              ...   3.19,  3.62,  3.90 au

Time for grid setup =    0.419 sec

------------------------------
INITIAL GUESS: MODEL POTENTIAL
------------------------------
Loading Hartree-Fock densities                     ... done
Calculating cut-offs                               ... done
Setting up the integral package                    ... done
Initializing the effective Hamiltonian             ... done
Starting the Coulomb interaction                   ... done (   0.3 sec)
Reading the grid                                   ... done
Mapping shells                                     ... done
Starting the XC term evaluation                    ... done (   0.4 sec)
  promolecular density results
     # of electrons  =    101.991986184
     EX              =    -83.034469628
     EC              =     -3.430545145
     EX+EC           =    -86.465014773
Transforming the Hamiltonian                       ... done (   0.0 sec)
Diagonalizing the Hamiltonian                      ... done (   0.0 sec)
Back transforming the eigenvectors                 ... done (   0.0 sec)
Now organizing SCF variables                       ... done
                      ------------------
                      INITIAL GUESS DONE (   1.2 sec)
                      ------------------
--------------
SCF ITERATIONS
--------------
ITER       Energy         Delta-E        Max-DP      RMS-DP      [F,P]     Damp
               ***  Starting incremental Fock matrix formation  ***
  0   -631.2727442719   0.000000000000 0.07575494  0.00190417  0.2466131 0.7000
  1   -631.3986246394  -0.125880367498 0.05054483  0.00138624  0.1197604 0.7000
                               ***Turning on DIIS***
  2   -631.4609506340  -0.062325994591 0.07585097  0.00271566  0.0464030 0.0000
  3   -631.5663825291  -0.105431895136 0.04395376  0.00081084  0.0574351 0.0000
  4   -631.5802940384  -0.013911509334 0.00935719  0.00018401  0.0099912 0.0000
  5   -631.5808040271  -0.000509988677 0.00429181  0.00007593  0.0060025 0.0000
                      *** Initiating the SOSCF procedure ***
                           *** Shutting down DIIS ***
                      *** Re-Reading the Fockian *** 
                      *** Removing any level shift *** 
ITER      Energy       Delta-E        Grad      Rot      Max-DP    RMS-DP
  6   -631.58089024  -0.0000862094  0.000882  0.000882  0.002154  0.000050
               *** Restarting incremental Fock matrix formation ***
  7   -631.58090341  -0.0000131737  0.000175  0.000425  0.000946  0.000021
  8   -631.58090414  -0.0000007254  0.000291  0.000393  0.000574  0.000008
  9   -631.58090608  -0.0000019425  0.000039  0.000110  0.000195  0.000004
 10   -631.58090612  -0.0000000393  0.000035  0.000071  0.000069  0.000001
 11   -631.58090617  -0.0000000509  0.000004  0.000011  0.000015  0.000000
                  ***Gradient check signals convergence***
              ***Rediagonalizing the Fockian in SOSCF/NRSCF***

               *****************************************************
               *                     SUCCESS                       *
               *           SCF CONVERGED AFTER  12 CYCLES          *
               *****************************************************

Setting up the final grid:

General Integration Accuracy     IntAcc      ...  4.670
Radial Grid Type                 RadialGrid  ... Gauss-Chebyshev
Angular Grid (max. acc.)         AngularGrid ... Lebedev-302
Angular grid pruning method      GridPruning ... 3 (G Style)
Weight generation scheme         WeightScheme... Becke
Basis function cutoff            BFCut       ...    1.0000e-11
Integration weight cutoff        WCut        ...    1.0000e-14
Grids for H and He will be reduced by one unit

# of grid points (after initial pruning)     ... 131090 (   0.0 sec)
# of grid points (after weights+screening)   ... 116025 (   0.5 sec)
nearest neighbour list constructed           ...    0.0 sec
Grid point re-assignment to atoms done       ...    0.0 sec
Grid point division into batches done        ...    0.4 sec
Reduced shell lists constructed in    1.2 sec

Total number of grid points                  ...   116025
Total number of batches                      ...     1825
Average number of points per batch           ...       63
Average number of grid points per atom       ...     4297
Average number of shells per batch           ...    68.28 (55.51%)
Average number of basis functions per batch  ...   138.03 (52.89%)
Average number of large shells per batch     ...    48.13 (70.49%)
Average number of large basis fcns per batch ...    96.51 (69.92%)
Maximum spatial batch extension              ...  20.88, 19.27, 19.38 au
Average spatial batch extension              ...   2.20,  2.32,  2.38 au

Final grid set up in    1.8 sec
Final integration                            ... done (   1.9 sec)
Change in XC energy                          ...     0.004203003
Integrated number of electrons               ...   101.999934676
Previous integrated no of electrons          ...   101.997661690

----------------
TOTAL SCF ENERGY
----------------

Total Energy       :         -631.57670317 Eh          -17186.07582 eV

Components:
Nuclear Repulsion  :          883.55240707 Eh           24042.68330 eV
Electronic Energy  :        -1515.12911024 Eh          -41228.75912 eV
One Electron Energy:        -2610.22309301 Eh          -71027.78134 eV
Two Electron Energy:         1095.09398277 Eh           29799.02222 eV

Virial components:
Potential Energy   :        -1256.97528342 Eh          -34204.03636 eV
Kinetic Energy     :          625.39858025 Eh           17017.96054 eV
Virial Ratio       :            2.00987870


DFT components:
N(Alpha)           :       50.999967338133 electrons
N(Beta)            :       50.999967338133 electrons
N(Total)           :      101.999934676266 electrons
E(XC)              :      -61.024201725288 Eh       
DFET-embed. en.    :        0.000000000000 Eh       

---------------
SCF CONVERGENCE
---------------

  Last Energy change         ...   -2.4736e-09  Tolerance :   1.0000e-08
  Last MAX-Density change    ...    6.8571e-06  Tolerance :   1.0000e-07
  Last RMS-Density change    ...    1.5681e-07  Tolerance :   5.0000e-09
  Last Orbital Gradient      ...    1.8118e-06  Tolerance :   1.0000e-05
  Last Orbital Rotation      ...    4.6118e-06  Tolerance :   1.0000e-05

             **** THE GBW FILE WAS UPDATED (042259589.gbw) ****
             **** DENSITY FILE WAS UPDATED (042259589.scfp) ****
             **** ENERGY FILE WAS UPDATED (042259589.en.tmp) ****
             **** THE GBW FILE WAS UPDATED (042259589.gbw) ****
             **** DENSITY FILE WAS UPDATED (042259589.scfp) ****
----------------
ORBITAL ENERGIES
----------------

  NO   OCC          E(Eh)            E(eV) 
   0   2.0000     -19.248981      -523.7914 
   1   2.0000     -19.209357      -522.7132 
   2   2.0000     -14.473658      -393.8483 
   3   2.0000     -10.392791      -282.8022 
   4   2.0000     -10.344023      -281.4752 
   5   2.0000     -10.334668      -281.2206 
   6   2.0000     -10.334516      -281.2165 
   7   2.0000     -10.312640      -280.6212 
   8   2.0000     -10.302621      -280.3486 
   9   2.0000     -10.290412      -280.0164 
  10   2.0000     -10.289790      -279.9994 
  11   2.0000     -10.286648      -279.9139 
  12   2.0000     -10.283148      -279.8187 
  13   2.0000     -10.280103      -279.7358 
  14   2.0000      -1.155550       -31.4441 
  15   2.0000      -1.138595       -30.9827 
  16   2.0000      -1.077905       -29.3313 
  17   2.0000      -0.976412       -26.5695 
  18   2.0000      -0.932178       -25.3659 
  19   2.0000      -0.861102       -23.4318 
  20   2.0000      -0.854315       -23.2471 
  21   2.0000      -0.836020       -22.7493 
  22   2.0000      -0.798100       -21.7174 
  23   2.0000      -0.740285       -20.1442 
  24   2.0000      -0.727869       -19.8063 
  25   2.0000      -0.695001       -18.9119 
  26   2.0000      -0.666710       -18.1421 
  27   2.0000      -0.630965       -17.1694 
  28   2.0000      -0.617853       -16.8126 
  29   2.0000      -0.606559       -16.5053 
  30   2.0000      -0.593792       -16.1579 
  31   2.0000      -0.573434       -15.6039 
  32   2.0000      -0.556046       -15.1308 
  33   2.0000      -0.547310       -14.8931 
  34   2.0000      -0.537050       -14.6139 
  35   2.0000      -0.528455       -14.3800 
  36   2.0000      -0.525660       -14.3039 
  37   2.0000      -0.517239       -14.0748 
  38   2.0000      -0.507495       -13.8096 
  39   2.0000      -0.487201       -13.2574 
  40   2.0000      -0.477303       -12.9881 
  41   2.0000      -0.472503       -12.8575 
  42   2.0000      -0.458182       -12.4678 
  43   2.0000      -0.450244       -12.2518 
  44   2.0000      -0.438967       -11.9449 
  45   2.0000      -0.423396       -11.5212 
  46   2.0000      -0.390186       -10.6175 
  47   2.0000      -0.379530       -10.3275 
  48   2.0000      -0.348568        -9.4850 
  49   2.0000      -0.339225        -9.2308 
  50   2.0000      -0.304448        -8.2845 
  51   0.0000       0.061724         1.6796 
  52   0.0000       0.072903         1.9838 
  53   0.0000       0.123360         3.3568 
  54   0.0000       0.125614         3.4181 
  55   0.0000       0.147238         4.0066 
  56   0.0000       0.154596         4.2068 
  57   0.0000       0.167502         4.5580 
  58   0.0000       0.179929         4.8961 
  59   0.0000       0.199087         5.4174 
  60   0.0000       0.203392         5.5346 
  61   0.0000       0.212423         5.7803 
  62   0.0000       0.220470         5.9993 
  63   0.0000       0.228435         6.2160 
  64   0.0000       0.230665         6.2767 
  65   0.0000       0.247399         6.7321 
  66   0.0000       0.255916         6.9638 
  67   0.0000       0.261232         7.1085 
  68   0.0000       0.270466         7.3597 
  69   0.0000       0.285170         7.7599 
  70   0.0000       0.293489         7.9862 
  71   0.0000       0.308179         8.3860 
  72   0.0000       0.315345         8.5810 
  73   0.0000       0.345763         9.4087 
  74   0.0000       0.363237         9.8842 
  75   0.0000       0.372845        10.1456 
  76   0.0000       0.391046        10.6409 
  77   0.0000       0.399842        10.8803 
  78   0.0000       0.408628        11.1193 
  79   0.0000       0.421615        11.4727 
  80   0.0000       0.449807        12.2399 
  81   0.0000       0.491898        13.3852 
  82   0.0000       0.497079        13.5262 
  83   0.0000       0.505220        13.7477 
  84   0.0000       0.506212        13.7747 
  85   0.0000       0.534982        14.5576 
  86   0.0000       0.543924        14.8009 
  87   0.0000       0.553219        15.0539 
  88   0.0000       0.563569        15.3355 
  89   0.0000       0.569953        15.5092 
  90   0.0000       0.574943        15.6450 
  91   0.0000       0.594882        16.1876 
  92   0.0000       0.598853        16.2956 
  93   0.0000       0.602552        16.3963 
  94   0.0000       0.623781        16.9739 
  95   0.0000       0.629710        17.1353 
  96   0.0000       0.634531        17.2665 
  97   0.0000       0.656192        17.8559 
  98   0.0000       0.667335        18.1591 
  99   0.0000       0.676420        18.4063 
 100   0.0000       0.682939        18.5837 
 101   0.0000       0.698399        19.0044 
 102   0.0000       0.709623        19.3098 
 103   0.0000       0.713756        19.4223 
 104   0.0000       0.722755        19.6672 
 105   0.0000       0.732151        19.9228 
 106   0.0000       0.736910        20.0523 
 107   0.0000       0.749964        20.4075 
 108   0.0000       0.753159        20.4945 
 109   0.0000       0.756611        20.5884 
 110   0.0000       0.762324        20.7439 
 111   0.0000       0.764849        20.8126 
 112   0.0000       0.767311        20.8796 
 113   0.0000       0.769651        20.9433 
 114   0.0000       0.774357        21.0713 
 115   0.0000       0.784727        21.3535 
 116   0.0000       0.796671        21.6785 
 117   0.0000       0.798993        21.7417 
 118   0.0000       0.818538        22.2736 
 119   0.0000       0.822685        22.3864 
 120   0.0000       0.832278        22.6474 
 121   0.0000       0.847782        23.0693 
 122   0.0000       0.853491        23.2247 
 123   0.0000       0.858066        23.3492 
 124   0.0000       0.896542        24.3961 
 125   0.0000       0.904510        24.6130 
 126   0.0000       0.916971        24.9520 
 127   0.0000       0.941945        25.6316 
 128   0.0000       0.971447        26.4344 
 129   0.0000       0.978807        26.6347 
 130   0.0000       1.032696        28.1011 
 131   0.0000       1.048812        28.5396 
 132   0.0000       1.067438        29.0465 
 133   0.0000       1.070088        29.1186 
 134   0.0000       1.090956        29.6864 
 135   0.0000       1.108441        30.1622 
 136   0.0000       1.126639        30.6574 
 137   0.0000       1.168756        31.8035 
 138   0.0000       1.175892        31.9976 
 139   0.0000       1.201373        32.6910 
 140   0.0000       1.211823        32.9754 
 141   0.0000       1.217591        33.1323 
 142   0.0000       1.239649        33.7326 
 143   0.0000       1.290863        35.1262 
 144   0.0000       1.305894        35.5352 
 145   0.0000       1.326003        36.0824 
 146   0.0000       1.346828        36.6491 
 147   0.0000       1.357753        36.9463 
 148   0.0000       1.368621        37.2421 
 149   0.0000       1.372594        37.3502 
 150   0.0000       1.385907        37.7124 
 151   0.0000       1.399423        38.0802 
 152   0.0000       1.406019        38.2597 
 153   0.0000       1.418937        38.6112 
 154   0.0000       1.444856        39.3165 
 155   0.0000       1.485390        40.4195 
 156   0.0000       1.499651        40.8076 
 157   0.0000       1.534962        41.7684 
 158   0.0000       1.558300        42.4035 
 159   0.0000       1.594311        43.3834 
 160   0.0000       1.621055        44.1112 
 161   0.0000       1.635325        44.4995 
 162   0.0000       1.654692        45.0265 
 163   0.0000       1.675420        45.5905 
 164   0.0000       1.692578        46.0574 
 165   0.0000       1.715477        46.6805 
 166   0.0000       1.756230        47.7894 
 167   0.0000       1.765225        48.0342 
 168   0.0000       1.777654        48.3724 
 169   0.0000       1.779297        48.4171 
 170   0.0000       1.787570        48.6423 
 171   0.0000       1.794050        48.8186 
 172   0.0000       1.832480        49.8643 
 173   0.0000       1.833820        49.9008 
 174   0.0000       1.853783        50.4440 
 175   0.0000       1.864449        50.7342 
 176   0.0000       1.867487        50.8169 
 177   0.0000       1.869837        50.8809 
 178   0.0000       1.876473        51.0614 
 179   0.0000       1.891395        51.4675 
 180   0.0000       1.896205        51.5984 
 181   0.0000       1.906232        51.8712 
 182   0.0000       1.936947        52.7070 
 183   0.0000       1.940333        52.7991 
 184   0.0000       1.953667        53.1620 
 185   0.0000       1.956813        53.2476 
 186   0.0000       1.978023        53.8247 
 187   0.0000       1.990541        54.1654 
 188   0.0000       2.000181        54.4277 
 189   0.0000       2.007902        54.6378 
 190   0.0000       2.026011        55.1306 
 191   0.0000       2.043427        55.6045 
 192   0.0000       2.055645        55.9370 
 193   0.0000       2.069684        56.3190 
 194   0.0000       2.081037        56.6279 
 195   0.0000       2.096416        57.0464 
 196   0.0000       2.106973        57.3336 
 197   0.0000       2.115086        57.5544 
 198   0.0000       2.134236        58.0755 
 199   0.0000       2.141069        58.2615 
 200   0.0000       2.169529        59.0359 
 201   0.0000       2.178081        59.2686 
 202   0.0000       2.213105        60.2216 
 203   0.0000       2.233919        60.7880 
 204   0.0000       2.246853        61.1400 
 205   0.0000       2.255456        61.3741 
 206   0.0000       2.286174        62.2099 
 207   0.0000       2.292028        62.3692 
 208   0.0000       2.298852        62.5549 
 209   0.0000       2.322235        63.1912 
 210   0.0000       2.340338        63.6838 
 211   0.0000       2.375864        64.6506 
 212   0.0000       2.394539        65.1587 
 213   0.0000       2.413533        65.6756 
 214   0.0000       2.423393        65.9439 
 215   0.0000       2.438585        66.3573 
 216   0.0000       2.462846        67.0175 
 217   0.0000       2.473785        67.3151 
 218   0.0000       2.476614        67.3921 
 219   0.0000       2.512993        68.3820 
 220   0.0000       2.529726        68.8373 
 221   0.0000       2.535654        68.9987 
 222   0.0000       2.589987        70.4771 
 223   0.0000       2.600830        70.7722 
 224   0.0000       2.689125        73.1748 
 225   0.0000       2.695212        73.3405 
 226   0.0000       2.708081        73.6906 
 227   0.0000       2.732983        74.3682 
 228   0.0000       2.745800        74.7170 
 229   0.0000       2.761442        75.1426 
 230   0.0000       2.783386        75.7398 
 231   0.0000       2.807525        76.3966 
 232   0.0000       2.811129        76.4947 
 233   0.0000       2.836073        77.1735 
 234   0.0000       2.858472        77.7830 
 235   0.0000       2.869941        78.0951 
 236   0.0000       2.880400        78.3797 
 237   0.0000       2.904152        79.0260 
 238   0.0000       2.941684        80.0473 
 239   0.0000       2.954081        80.3846 
 240   0.0000       2.982194        81.1496 
 241   0.0000       2.998731        81.5996 
 242   0.0000       3.018481        82.1371 
 243   0.0000       3.027300        82.3770 
 244   0.0000       3.045349        82.8682 
 245   0.0000       3.058110        83.2154 
 246   0.0000       3.073944        83.6463 
 247   0.0000       3.130146        85.1756 
 248   0.0000       3.156753        85.8996 
 249   0.0000       3.168874        86.2294 
 250   0.0000       3.188781        86.7712 
 251   0.0000       3.246096        88.3308 
 252   0.0000       3.275193        89.1225 
 253   0.0000       3.323812        90.4455 
 254   0.0000       3.350002        91.1582 
 255   0.0000       3.403019        92.6009 
 256   0.0000       3.471023        94.4513 
 257   0.0000       3.661682        99.6394 
 258   0.0000       3.771749       102.6345 
 259   0.0000       3.830672       104.2379 
 260   0.0000       3.856625       104.9441 

                    ********************************
                    * MULLIKEN POPULATION ANALYSIS *
                    ********************************

-----------------------
MULLIKEN ATOMIC CHARGES
-----------------------
   0 C :   -0.005938
   1 C :   -0.008735
   2 C :   -0.044062
   3 C :    0.176275
   4 C :   -0.074374
   5 C :   -0.005923
   6 H :    0.011070
   7 H :   -0.001683
   8 N :   -0.322873
   9 C :    0.137451
  10 O :   -0.245276
  11 C :    0.025346
  12 C :   -0.245820
  13 C :    0.245075
  14 O :   -0.331461
  15 H :    0.172450
  16 H :    0.022661
  17 H :    0.032381
  18 H :    0.022568
  19 C :    0.176187
  20 H :    0.042636
  21 H :    0.054707
  22 H :    0.065225
  23 H :    0.051333
  24 H :    0.027280
  25 H :    0.013209
  26 H :    0.010291
Sum of atomic charges:   -0.0000000

--------------------------------
MULLIKEN REDUCED ORBITAL CHARGES
--------------------------------
  0 C s       :     3.141229  s :     3.141229
      pz      :     0.986807  p :     2.828690
      px      :     0.871731
      py      :     0.970151
      dz2     :     0.006092  d :     0.036020
      dxz     :     0.005437
      dyz     :     0.006203
      dx2y2   :     0.009824
      dxy     :     0.008464
  1 C s       :     3.142634  s :     3.142634
      pz      :     0.947190  p :     2.829349
      px      :     0.945257
      py      :     0.936902
      dz2     :     0.003936  d :     0.036752
      dxz     :     0.007807
      dyz     :     0.005288
      dx2y2   :     0.009353
      dxy     :     0.010369
  2 C s       :     3.236334  s :     3.236334
      pz      :     0.955547  p :     2.773697
      px      :     0.905651
      py      :     0.912499
      dz2     :     0.004717  d :     0.034032
      dxz     :     0.007779
      dyz     :     0.004272
      dx2y2   :     0.007491
      dxy     :     0.009773
  3 C s       :     2.952567  s :     2.952567
      pz      :     0.958183  p :     2.812342
      px      :     0.851355
      py      :     1.002805
      dz2     :     0.008822  d :     0.058816
      dxz     :     0.014180
      dyz     :     0.007165
      dx2y2   :     0.016472
      dxy     :     0.012177
  4 C s       :     3.219011  s :     3.219011
      pz      :     0.956336  p :     2.821280
      px      :     0.908343
      py      :     0.956600
      dz2     :     0.003653  d :     0.034083
      dxz     :     0.007703
      dyz     :     0.004906
      dx2y2   :     0.008322
      dxy     :     0.009500
  5 C s       :     3.140458  s :     3.140458
      pz      :     0.959618  p :     2.828569
      px      :     0.950954
      py      :     0.917997
      dz2     :     0.005019  d :     0.036896
      dxz     :     0.008149
      dyz     :     0.004664
      dx2y2   :     0.009257
      dxy     :     0.009808
  6 H s       :     0.965589  s :     0.965589
      pz      :     0.006447  p :     0.023342
      px      :     0.005328
      py      :     0.011567
  7 H s       :     0.977433  s :     0.977433
      pz      :     0.008852  p :     0.024250
      px      :     0.007168
      py      :     0.008230
  8 N s       :     3.403290  s :     3.403290
      pz      :     1.582454  p :     3.892627
      px      :     1.146269
      py      :     1.163904
      dz2     :     0.003032  d :     0.026956
      dxz     :     0.004257
      dyz     :     0.003595
      dx2y2   :     0.007718
      dxy     :     0.008353
  9 C s       :     3.076857  s :     3.076857
      pz      :     0.823313  p :     2.662770
      px      :     0.982235
      py      :     0.857222
      dz2     :     0.010821  d :     0.122921
      dxz     :     0.011424
      dyz     :     0.026733
      dx2y2   :     0.041494
      dxy     :     0.032450
 10 O s       :     3.727763  s :     3.727763
      pz      :     1.410354  p :     4.498930
      px      :     1.662501
      py      :     1.426075
      dz2     :     0.002535  d :     0.018583
      dxz     :     0.001451
      dyz     :     0.004991
      dx2y2   :     0.004516
      dxy     :     0.005090
 11 C s       :     2.973626  s :     2.973626
      pz      :     1.039858  p :     2.969359
      px      :     0.979759
      py      :     0.949742
      dz2     :     0.005990  d :     0.031668
      dxz     :     0.004528
      dyz     :     0.006535
      dx2y2   :     0.009128
      dxy     :     0.005488
 12 C s       :     3.154279  s :     3.154279
      pz      :     1.046713  p :     3.049604
      px      :     1.002057
      py      :     1.000834
      dz2     :     0.008653  d :     0.041937
      dxz     :     0.009965
      dyz     :     0.006560
      dx2y2   :     0.009052
      dxy     :     0.007707
 13 C s       :     2.967689  s :     2.967689
      pz      :     0.983431  p :     2.721916
      px      :     1.013106
      py      :     0.725378
      dz2     :     0.011294  d :     0.065320
      dxz     :     0.008119
      dyz     :     0.014199
      dx2y2   :     0.016672
      dxy     :     0.015037
 14 O s       :     3.728724  s :     3.728724
      pz      :     1.670372  p :     4.589259
      px      :     1.594961
      py      :     1.323926
      dz2     :     0.001706  d :     0.013478
      dxz     :     0.003369
      dyz     :     0.002244
      dx2y2   :     0.004290
      dxy     :     0.001869
 15 H s       :     0.758417  s :     0.758417
      pz      :     0.025497  p :     0.069133
      px      :     0.027099
      py      :     0.016537
 16 H s       :     0.956340  s :     0.956340
      pz      :     0.004904  p :     0.020999
      px      :     0.011736
      py      :     0.004359
 17 H s       :     0.946497  s :     0.946497
      pz      :     0.009187  p :     0.021121
      px      :     0.009504
      py      :     0.002430
 18 H s       :     0.956469  s :     0.956469
      pz      :     0.008584  p :     0.020963
      px      :     0.008092
      py      :     0.004287
 19 C s       :     2.969164  s :     2.969164
      pz      :     0.985925  p :     2.806097
      px      :     0.893971
      py      :     0.926201
      dz2     :     0.012057  d :     0.048552
      dxz     :     0.006993
      dyz     :     0.008657
      dx2y2   :     0.008225
      dxy     :     0.012621
 20 H s       :     0.936121  s :     0.936121
      pz      :     0.014317  p :     0.021242
      px      :     0.003205
      py      :     0.003720
 21 H s       :     0.922824  s :     0.922824
      pz      :     0.006938  p :     0.022469
      px      :     0.003295
      py      :     0.012236
 22 H s       :     0.911444  s :     0.911444
      pz      :     0.013012  p :     0.023331
      px      :     0.004778
      py      :     0.005541
 23 H s       :     0.925511  s :     0.925511
      pz      :     0.009029  p :     0.023157
      px      :     0.007409
      py      :     0.006718
 24 H s       :     0.947013  s :     0.947013
      pz      :     0.005928  p :     0.025707
      px      :     0.006310
      py      :     0.013469
 25 H s       :     0.963124  s :     0.963124
      pz      :     0.008338  p :     0.023667
      px      :     0.007314
      py      :     0.008016
 26 H s       :     0.966336  s :     0.966336
      pz      :     0.004576  p :     0.023373
      px      :     0.014437
      py      :     0.004360


                     *******************************
                     * LOEWDIN POPULATION ANALYSIS *
                     *******************************

----------------------
LOEWDIN ATOMIC CHARGES
----------------------
   0 C :   -0.042443
   1 C :   -0.018681
   2 C :   -0.033437
   3 C :    0.030148
   4 C :   -0.055315
   5 C :   -0.022687
   6 H :    0.030354
   7 H :    0.026963
   8 N :   -0.031919
   9 C :    0.077534
  10 O :   -0.200008
  11 C :   -0.048323
  12 C :   -0.064412
  13 C :    0.072015
  14 O :   -0.135706
  15 H :    0.076024
  16 H :    0.010343
  17 H :    0.026012
  18 H :    0.023353
  19 C :    0.050280
  20 H :    0.019776
  21 H :    0.027759
  22 H :    0.048364
  23 H :    0.039405
  24 H :    0.035227
  25 H :    0.030888
  26 H :    0.028486

-------------------------------
LOEWDIN REDUCED ORBITAL CHARGES
-------------------------------
  0 C s       :     2.849752  s :     2.849752
      pz      :     1.016628  p :     3.099152
      px      :     1.038894
      py      :     1.043630
      dz2     :     0.013572  d :     0.093539
      dxz     :     0.013775
      dyz     :     0.016790
      dx2y2   :     0.026199
      dxy     :     0.023203
  1 C s       :     2.849781  s :     2.849781
      pz      :     0.989253  p :     3.073803
      px      :     1.056899
      py      :     1.027651
      dz2     :     0.008982  d :     0.095098
      dxz     :     0.019064
      dyz     :     0.013337
      dx2y2   :     0.025302
      dxy     :     0.028415
  2 C s       :     2.851328  s :     2.851328
      pz      :     1.000164  p :     3.092302
      px      :     1.057487
      py      :     1.034652
      dz2     :     0.010623  d :     0.089807
      dxz     :     0.020042
      dyz     :     0.011008
      dx2y2   :     0.021941
      dxy     :     0.026194
  3 C s       :     2.822737  s :     2.822737
      pz      :     1.015648  p :     3.002406
      px      :     0.929964
      py      :     1.056793
      dz2     :     0.019199  d :     0.144710
      dxz     :     0.033472
      dyz     :     0.017905
      dx2y2   :     0.041974
      dxy     :     0.032160
  4 C s       :     2.848450  s :     2.848450
      pz      :     1.019553  p :     3.116207
      px      :     1.058382
      py      :     1.038272
      dz2     :     0.008479  d :     0.090658
      dxz     :     0.019150
      dyz     :     0.012673
      dx2y2   :     0.023450
      dxy     :     0.026907
  5 C s       :     2.848844  s :     2.848844
      pz      :     0.999255  p :     3.078748
      px      :     1.058026
      py      :     1.021467
      dz2     :     0.011202  d :     0.095095
      dxz     :     0.020626
      dyz     :     0.011752
      dx2y2   :     0.025454
      dxy     :     0.026061
  6 H s       :     0.901207  s :     0.901207
      pz      :     0.019280  p :     0.068439
      px      :     0.016450
      py      :     0.032709
  7 H s       :     0.901274  s :     0.901274
      pz      :     0.025828  p :     0.071763
      px      :     0.021355
      py      :     0.024581
  8 N s       :     3.055027  s :     3.055027
      pz      :     1.515656  p :     3.910177
      px      :     1.183735
      py      :     1.210786
      dz2     :     0.006139  d :     0.066715
      dxz     :     0.008894
      dyz     :     0.007295
      dx2y2   :     0.020210
      dxy     :     0.024178
  9 C s       :     2.834837  s :     2.834837
      pz      :     0.834413  p :     2.809308
      px      :     1.001498
      py      :     0.973396
      dz2     :     0.022450  d :     0.278320
      dxz     :     0.022618
      dyz     :     0.055291
      dx2y2   :     0.100614
      dxy     :     0.077347
 10 O s       :     3.535013  s :     3.535013
      pz      :     1.423263  p :     4.633456
      px      :     1.689305
      py      :     1.520888
      dz2     :     0.004103  d :     0.031538
      dxz     :     0.002242
      dyz     :     0.007502
      dx2y2   :     0.007955
      dxy     :     0.009736
 11 C s       :     2.837419  s :     2.837419
      pz      :     1.074361  p :     3.126295
      px      :     1.033954
      py      :     1.017980
      dz2     :     0.015900  d :     0.084609
      dxz     :     0.012190
      dyz     :     0.016466
      dx2y2   :     0.026811
      dxy     :     0.013243
 12 C s       :     2.847817  s :     2.847817
      pz      :     1.057327  p :     3.114164
      px      :     1.028089
      py      :     1.028748
      dz2     :     0.021023  d :     0.102430
      dxz     :     0.024465
      dyz     :     0.014591
      dx2y2   :     0.023811
      dxy     :     0.018540
 13 C s       :     2.837475  s :     2.837475
      pz      :     1.045369  p :     2.943735
      px      :     1.066833
      py      :     0.831533
      dz2     :     0.026900  d :     0.146775
      dxz     :     0.020614
      dyz     :     0.030931
      dx2y2   :     0.036023
      dxy     :     0.032308
 14 O s       :     3.436837  s :     3.436837
      pz      :     1.682658  p :     4.673914
      px      :     1.623193
      py      :     1.368063
      dz2     :     0.002441  d :     0.024956
      dxz     :     0.006626
      dyz     :     0.003973
      dx2y2   :     0.008354
      dxy     :     0.003562
 15 H s       :     0.743216  s :     0.743216
      pz      :     0.069032  p :     0.180760
      px      :     0.073867
      py      :     0.037861
 16 H s       :     0.924658  s :     0.924658
      pz      :     0.015028  p :     0.064999
      px      :     0.033811
      py      :     0.016161
 17 H s       :     0.909710  s :     0.909710
      pz      :     0.027812  p :     0.064279
      px      :     0.026947
      py      :     0.009519
 18 H s       :     0.908547  s :     0.908547
      pz      :     0.027070  p :     0.068100
      px      :     0.025066
      py      :     0.015964
 19 C s       :     2.828022  s :     2.828022
      pz      :     1.052861  p :     3.003773
      px      :     0.963143
      py      :     0.987768
      dz2     :     0.030591  d :     0.117925
      dxz     :     0.015235
      dyz     :     0.021405
      dx2y2   :     0.020160
      dxy     :     0.030534
 20 H s       :     0.913427  s :     0.913427
      pz      :     0.041591  p :     0.066797
      px      :     0.012666
      py      :     0.012540
 21 H s       :     0.902955  s :     0.902955
      pz      :     0.019979  p :     0.069286
      px      :     0.012506
      py      :     0.036801
 22 H s       :     0.881678  s :     0.881678
      pz      :     0.036715  p :     0.069958
      px      :     0.015249
      py      :     0.017994
 23 H s       :     0.891404  s :     0.891404
      pz      :     0.025149  p :     0.069191
      px      :     0.022998
      py      :     0.021043
 24 H s       :     0.887010  s :     0.887010
      pz      :     0.019528  p :     0.077763
      px      :     0.020261
      py      :     0.037974
 25 H s       :     0.900512  s :     0.900512
      pz      :     0.023961  p :     0.068601
      px      :     0.021303
      py      :     0.023337
 26 H s       :     0.902244  s :     0.902244
      pz      :     0.014721  p :     0.069270
      px      :     0.040183
      py      :     0.014366


                      *****************************
                      * MAYER POPULATION ANALYSIS *
                      *****************************

  NA   - Mulliken gross atomic population
  ZA   - Total nuclear charge
  QA   - Mulliken gross atomic charge
  VA   - Mayer's total valence
  BVA  - Mayer's bonded valence
  FA   - Mayer's free valence

  ATOM       NA         ZA         QA         VA         BVA        FA
  0 C      6.0059     6.0000    -0.0059     3.8402     3.8402    -0.0000
  1 C      6.0087     6.0000    -0.0087     3.8652     3.8652    -0.0000
  2 C      6.0441     6.0000    -0.0441     3.8890     3.8890    -0.0000
  3 C      5.8237     6.0000     0.1763     3.8613     3.8613    -0.0000
  4 C      6.0744     6.0000    -0.0744     3.8883     3.8883    -0.0000
  5 C      6.0059     6.0000    -0.0059     3.8784     3.8784     0.0000
  6 H      0.9889     1.0000     0.0111     0.9846     0.9846     0.0000
  7 H      1.0017     1.0000    -0.0017     0.9950     0.9950    -0.0000
  8 N      7.3229     7.0000    -0.3229     3.1435     3.1435    -0.0000
  9 C      5.8625     6.0000     0.1375     4.2639     4.2639    -0.0000
 10 O      8.2453     8.0000    -0.2453     2.2804     2.2804     0.0000
 11 C      5.9747     6.0000     0.0253     3.8533     3.8533    -0.0000
 12 C      6.2458     6.0000    -0.2458     4.0637     4.0637    -0.0000
 13 C      5.7549     6.0000     0.2451     3.9342     3.9342    -0.0000
 14 O      8.3315     8.0000    -0.3315     2.0884     2.0884    -0.0000
 15 H      0.8276     1.0000     0.1724     1.0102     1.0102     0.0000
 16 H      0.9773     1.0000     0.0227     0.9794     0.9794    -0.0000
 17 H      0.9676     1.0000     0.0324     0.9953     0.9953    -0.0000
 18 H      0.9774     1.0000     0.0226     0.9841     0.9841    -0.0000
 19 C      5.8238     6.0000     0.1762     3.8478     3.8478     0.0000
 20 H      0.9574     1.0000     0.0426     0.9742     0.9742     0.0000
 21 H      0.9453     1.0000     0.0547     1.0199     1.0199    -0.0000
 22 H      0.9348     1.0000     0.0652     0.9887     0.9887    -0.0000
 23 H      0.9487     1.0000     0.0513     1.0088     1.0088    -0.0000
 24 H      0.9727     1.0000     0.0273     1.0361     1.0361    -0.0000
 25 H      0.9868     1.0000     0.0132     0.9851     0.9851    -0.0000
 26 H      0.9897     1.0000     0.0103     0.9848     0.9848     0.0000

  Mayer bond orders larger than 0.100000
B(  0-C ,  1-C ) :   1.3822 B(  0-C ,  5-C ) :   1.3995 B(  0-C , 26-H ) :   0.9961 
B(  1-C ,  2-C ) :   1.3984 B(  1-C , 25-H ) :   0.9905 B(  2-C ,  3-C ) :   1.3934 
B(  2-C , 24-H ) :   0.9897 B(  3-C ,  4-C ) :   1.3727 B(  3-C ,  8-N ) :   0.9783 
B(  4-C ,  5-C ) :   1.3908 B(  4-C ,  7-H ) :   0.9929 B(  5-C ,  6-H ) :   0.9892 
B(  8-N ,  9-C ) :   1.1190 B(  8-N , 19-C ) :   0.9405 B(  9-C , 10-O ) :   2.0859 
B(  9-C , 11-C ) :   0.9664 B( 11-C , 12-C ) :   1.0395 B( 11-C , 22-H ) :   0.9224 
B( 11-C , 23-H ) :   0.9447 B( 12-C , 13-C ) :   1.0054 B( 12-C , 18-H ) :   0.9284 
B( 12-C , 19-C ) :   1.0030 B( 13-C , 14-O ) :   1.0169 B( 13-C , 16-H ) :   0.9565 
B( 13-C , 17-H ) :   0.9505 B( 14-O , 15-H ) :   0.9816 B( 19-C , 20-H ) :   0.9468 
B( 19-C , 21-H ) :   0.9466 

-------
TIMINGS
-------

Total SCF time: 0 days 0 hours 4 min 4 sec 

Total time                  ....     244.083 sec
Sum of individual times     ....     243.807 sec  ( 99.9%)

Fock matrix formation       ....     240.665 sec  ( 98.6%)
  XC integration            ....       8.451 sec  (  3.5% of F)
    Basis function eval.    ....       2.482 sec  ( 29.4% of XC)
    Density eval.           ....       1.620 sec  ( 19.2% of XC)
    XC-Functional eval.     ....       1.873 sec  ( 22.2% of XC)
    XC-Potential eval.      ....       2.258 sec  ( 26.7% of XC)
Diagonalization             ....       0.064 sec  (  0.0%)
Density matrix formation    ....       0.016 sec  (  0.0%)
Population analysis         ....       0.008 sec  (  0.0%)
Initial guess               ....       0.778 sec  (  0.3%)
Orbital Transformation      ....       0.000 sec  (  0.0%)
Orbital Orthonormalization  ....       0.000 sec  (  0.0%)
DIIS solution               ....       0.022 sec  (  0.0%)
SOSCF solution              ....       0.033 sec  (  0.0%)
Grid generation             ....       2.220 sec  (  0.9%)


-------------------------------------------------------------------------------
                          DFT DISPERSION CORRECTION                            
                                                                               
                              DFTD3 V3.1  Rev 1                                
                              USING zero damping                               
-------------------------------------------------------------------------------
The omegaB97X-D3 functional is recognized. Fit by Chai et al.
Active option DFTDOPT                   ...         3   

molecular C6(AA) [au] = 7310.089328 


            DFT-D V3
 parameters
 s6 scaling factor         :     1.0000 
 rs6 scaling factor        :     1.2810 
 s8 scaling factor         :     1.0000 
 rs8 scaling factor        :     1.0940 
 Damping factor alpha6     :    14.0000 
 Damping factor alpha8     :    16.0000 
 ad hoc parameters k1-k3   :    16.0000     1.3333    -4.0000 

 Edisp/kcal,au: -6.715981359954  -0.010702596409 
 E6   /kcal   :  -2.910121736 
 E8   /kcal   :  -3.805859624 
 % E8         :  56.668704391 

-------------------------   ----------------
Dispersion correction           -0.010702596
-------------------------   ----------------


-------------------------   --------------------
FINAL SINGLE POINT ENERGY      -631.587405763903
-------------------------   --------------------

------------------------------------------------------------------------------
                         ORCA SCF GRADIENT CALCULATION
------------------------------------------------------------------------------

Gradient of the Kohn-Sham DFT energy:
Kohn-Sham wavefunction type      ... RKS
Hartree-Fock exchange scaling    ...    0.196
Number of operators              ...    1
Number of atoms                  ...   27
Basis set dimensions             ...  261
Integral neglect threshold       ... 2.5e-11
Integral primitive cutoff        ... 2.5e-12

Nuclear repulsion gradient       ... done
One Electron Gradient            ... done
Pre-screening matrix             ... done
Starting the two electron gradient:
Two electron gradient done
Exchange-correlation gradient    ... done
Dispersion correction            ... done

------------------
CARTESIAN GRADIENT
------------------

   1   C   :    0.001414633    0.000742027    0.000430664
   2   C   :   -0.000454928    0.001773386    0.001011539
   3   C   :    0.000476156   -0.002052206   -0.001822209
   4   C   :    0.000565600   -0.002242490    0.000033445
   5   C   :   -0.001683049   -0.000980781    0.000152297
   6   C   :    0.000984258   -0.000078911   -0.000745248
   7   H   :    0.003497791    0.007416868    0.003887370
   8   H   :   -0.005478885    0.005188208    0.005144518
   9   N   :   -0.000252488    0.010318664    0.000433480
  10   C   :   -0.007672256   -0.012590597   -0.001119224
  11   O   :    0.001169403   -0.002367046   -0.001193980
  12   C   :    0.003377922    0.007328364   -0.000767778
  13   C   :    0.004644894   -0.000761284   -0.009241924
  14   C   :   -0.002690948    0.008830499    0.009374614
  15   O   :    0.000467131    0.001897833    0.000948792
  16   H   :    0.001005666   -0.001663533   -0.001302195
  17   H   :   -0.002927092   -0.004555859   -0.001787858
  18   H   :    0.003059082   -0.003827709   -0.004351514
  19   H   :   -0.003424933    0.001784322    0.003668425
  20   C   :   -0.003943332   -0.002172706    0.001021434
  21   H   :    0.001177438    0.002699476    0.004757535
  22   H   :    0.000265693    0.005140092   -0.000553710
  23   H   :   -0.000783275   -0.003810435    0.005539771
  24   H   :   -0.003083986   -0.005711775   -0.003804945
  25   H   :   -0.003832845   -0.006887039   -0.002675743
  26   H   :    0.005029582   -0.005627289   -0.005529927
  27   H   :    0.009092769    0.002209921   -0.001507630

Difference to translation invariance:
           :   -0.0000000000   -0.0000000000    0.0000000000

Norm of the cartesian gradient     ...    0.0376033069
RMS gradient                       ...    0.0041781452
MAX gradient                       ...    0.0125905973

-------
TIMINGS
-------

Total SCF gradient time            ...       91.020 sec

One electron gradient       ....       0.330 sec  (  0.4%)
Prescreening matrices       ....       0.141 sec  (  0.2%)
Two electron gradient       ....      82.680 sec  ( 90.8%)
XC gradient                 ....       7.722 sec  (  8.5%)
------------------------------------------------------------------------------
                         ORCA GEOMETRY RELAXATION STEP
------------------------------------------------------------------------------

Reading the OPT-File                    .... done
Getting information on internals        .... done
Copying old internal coords+grads       .... done
Making the new internal coordinates     .... (new redundants).... done
Validating the new internal coordinates .... (new redundants).... done
Calculating the B-matrix                .... done
Calculating the G,G- and P matrices     .... done
Transforming gradient to internals      .... done
Projecting the internal gradient        .... done
Number of atoms                         ....  27
Number of internal coordinates          .... 151
Current Energy                          ....  -631.587405764 Eh
Current gradient norm                   ....     0.037603307 Eh/bohr
Maximum allowed component of the step   ....  0.300
Current trust radius                    ....  0.300
Evaluating the initial hessian          ....  (Almloef) done
Projecting the Hessian                  .... done
Forming the augmented Hessian           .... done
Diagonalizing the augmented Hessian     .... done
Last element of RFO vector              ....  0.992408487
Lowest eigenvalues of augmented Hessian:
 -0.003755374  0.010701932  0.013279889  0.017710154  0.018227287
Length of the computed step             ....  0.123926128
The final length of the internal step   ....  0.123926128
Converting the step to cartesian space:
 Initial RMS(Int)=    0.0100849653
Transforming coordinates:
 Iter   0:  RMS(Cart)=    0.0332519107 RMS(Int)=    0.5110576053
 Iter   1:  RMS(Cart)=    0.0003384880 RMS(Int)=    0.0001388612
 Iter   2:  RMS(Cart)=    0.0000076934 RMS(Int)=    0.0000023953
 Iter   3:  RMS(Cart)=    0.0000001508 RMS(Int)=    0.0000000702
 Iter   4:  RMS(Cart)=    0.0000000033 RMS(Int)=    0.0000000015
done
Storing new coordinates                 .... done

                                .--------------------.
          ----------------------|Geometry convergence|-------------------------
          Item                value                   Tolerance       Converged
          ---------------------------------------------------------------------
[...]
      pz      :     0.005895  p :     0.022905
      px      :     0.004799
      py      :     0.012211
  7 H s       :     0.968730  s :     0.968730
      pz      :     0.007771  p :     0.023792
      px      :     0.007554
      py      :     0.008467
  8 N s       :     3.420012  s :     3.420012
      pz      :     1.567897  p :     3.896362
      px      :     1.146324
      py      :     1.182141
      dz2     :     0.003040  d :     0.025987
      dxz     :     0.004313
      dyz     :     0.003367
      dx2y2   :     0.007413
      dxy     :     0.007854
  9 C s       :     3.078553  s :     3.078553
      pz      :     0.824678  p :     2.645169
      px      :     0.972537
      py      :     0.847955
      dz2     :     0.012304  d :     0.121176
      dxz     :     0.012444
      dyz     :     0.025232
      dx2y2   :     0.039621
      dxy     :     0.031576
 10 O s       :     3.729985  s :     3.729985
      pz      :     1.404915  p :     4.493677
      px      :     1.661276
      py      :     1.427486
      dz2     :     0.002735  d :     0.018544
      dxz     :     0.001508
      dyz     :     0.005080
      dx2y2   :     0.004372
      dxy     :     0.004848
 11 C s       :     2.992725  s :     2.992725
      pz      :     1.042398  p :     2.969382
      px      :     0.977517
      py      :     0.949467
      dz2     :     0.005479  d :     0.031518
      dxz     :     0.004780
      dyz     :     0.006796
      dx2y2   :     0.009047
      dxy     :     0.005416
 12 C s       :     3.145936  s :     3.145936
      pz      :     1.051837  p :     3.045843
      px      :     1.001261
      py      :     0.992744
      dz2     :     0.008440  d :     0.041851
      dxz     :     0.010065
      dyz     :     0.006549
      dx2y2   :     0.009249
      dxy     :     0.007548
 13 C s       :     2.972979  s :     2.972979
      pz      :     0.992076  p :     2.726059
      px      :     1.011288
      py      :     0.722694
      dz2     :     0.011268  d :     0.065688
      dxz     :     0.007779
      dyz     :     0.014603
      dx2y2   :     0.016846
      dxy     :     0.015193
 14 O s       :     3.728184  s :     3.728184
      pz      :     1.664790  p :     4.582210
      px      :     1.594136
      py      :     1.323283
      dz2     :     0.001745  d :     0.013621
      dxz     :     0.003400
      dyz     :     0.002139
      dx2y2   :     0.004432
      dxy     :     0.001905
 15 H s       :     0.758080  s :     0.758080
      pz      :     0.025889  p :     0.069594
      px      :     0.027232
      py      :     0.016473
 16 H s       :     0.955220  s :     0.955220
      pz      :     0.004781  p :     0.020830
      px      :     0.011794
      py      :     0.004255
 17 H s       :     0.945244  s :     0.945244
      pz      :     0.009839  p :     0.020852
      px      :     0.008609
      py      :     0.002405
 18 H s       :     0.954308  s :     0.954308
      pz      :     0.009156  p :     0.020653
      px      :     0.007508
      py      :     0.003990
 19 C s       :     2.980333  s :     2.980333
      pz      :     0.979347  p :     2.806661
      px      :     0.894864
      py      :     0.932449
      dz2     :     0.012012  d :     0.047833
      dxz     :     0.007335
      dyz     :     0.008203
      dx2y2   :     0.008338
      dxy     :     0.011945
 20 H s       :     0.933301  s :     0.933301
      pz      :     0.014118  p :     0.020915
      px      :     0.003127
      py      :     0.003670
 21 H s       :     0.919165  s :     0.919165
      pz      :     0.006457  p :     0.022329
      px      :     0.003312
      py      :     0.012560
 22 H s       :     0.905887  s :     0.905887
      pz      :     0.012524  p :     0.022787
      px      :     0.004612
      py      :     0.005651
 23 H s       :     0.920939  s :     0.920939
      pz      :     0.008795  p :     0.022670
      px      :     0.007455
      py      :     0.006420
 24 H s       :     0.936918  s :     0.936918
      pz      :     0.005545  p :     0.025836
      px      :     0.006138
      py      :     0.014153
 25 H s       :     0.955061  s :     0.955061
      pz      :     0.007164  p :     0.022889
      px      :     0.007490
      py      :     0.008235
 26 H s       :     0.959387  s :     0.959387
      pz      :     0.004452  p :     0.022727
      px      :     0.014216
      py      :     0.004059


                     *******************************
                     * LOEWDIN POPULATION ANALYSIS *
                     *******************************

----------------------
LOEWDIN ATOMIC CHARGES
----------------------
   0 C :   -0.047088
   1 C :   -0.021333
   2 C :   -0.040140
   3 C :    0.034061
   4 C :   -0.061327
   5 C :   -0.024745
   6 H :    0.032268
   7 H :    0.029511
   8 N :   -0.042424
   9 C :    0.085451
  10 O :   -0.195264
  11 C :   -0.052119
  12 C :   -0.066405
  13 C :    0.067584
  14 O :   -0.131127
  15 H :    0.076246
  16 H :    0.011445
  17 H :    0.026831
  18 H :    0.025045
  19 C :    0.048167
  20 H :    0.021203
  21 H :    0.028378
  22 H :    0.051581
  23 H :    0.042043
  24 H :    0.037309
  25 H :    0.033599
  26 H :    0.031249

-------------------------------
LOEWDIN REDUCED ORBITAL CHARGES
-------------------------------
  0 C s       :     2.857394  s :     2.857394
      pz      :     1.010849  p :     3.098978
      px      :     1.038490
      py      :     1.049639
      dz2     :     0.011227  d :     0.090716
      dxz     :     0.011346
      dyz     :     0.015715
      dx2y2   :     0.027477
      dxy     :     0.024951
  1 C s       :     2.857939  s :     2.857939
      pz      :     0.981050  p :     3.071175
      px      :     1.056062
      py      :     1.034063
      dz2     :     0.007575  d :     0.092218
      dxz     :     0.016672
      dyz     :     0.012405
      dx2y2   :     0.025947
      dxy     :     0.029620
  2 C s       :     2.859216  s :     2.859216
      pz      :     0.998741  p :     3.094240
      px      :     1.054884
      py      :     1.040615
      dz2     :     0.008805  d :     0.086685
      dxz     :     0.017680
      dyz     :     0.009378
      dx2y2   :     0.023157
      dxy     :     0.027665
  3 C s       :     2.829809  s :     2.829809
      pz      :     1.006157  p :     2.996169
      px      :     0.927099
      py      :     1.062913
      dz2     :     0.016156  d :     0.139961
      dxz     :     0.029944
      dyz     :     0.016635
      dx2y2   :     0.043744
      dxy     :     0.033482
  4 C s       :     2.855742  s :     2.855742
      pz      :     1.023712  p :     3.117875
      px      :     1.057313
      py      :     1.036851
      dz2     :     0.007300  d :     0.087710
      dxz     :     0.016397
      dyz     :     0.011738
      dx2y2   :     0.024282
      dxy     :     0.027994
  5 C s       :     2.856687  s :     2.856687
      pz      :     0.990434  p :     3.075795
      px      :     1.059072
      py      :     1.026289
      dz2     :     0.009473  d :     0.092263
      dxz     :     0.018790
      dyz     :     0.010123
      dx2y2   :     0.027225
      dxy     :     0.026653
  6 H s       :     0.901271  s :     0.901271
      pz      :     0.017570  p :     0.066460
      px      :     0.014851
      py      :     0.034039
  7 H s       :     0.900190  s :     0.900190
      pz      :     0.022894  p :     0.070299
      px      :     0.022179
      py      :     0.025226
  8 N s       :     3.066008  s :     3.066008
      pz      :     1.511888  p :     3.912655
      px      :     1.181997
      py      :     1.218770
      dz2     :     0.006121  d :     0.063762
      dxz     :     0.009040
      dyz     :     0.006829
      dx2y2   :     0.019205
      dxy     :     0.022566
  9 C s       :     2.840035  s :     2.840035
      pz      :     0.840673  p :     2.801356
      px      :     0.996763
      py      :     0.963919
      dz2     :     0.024806  d :     0.273158
      dxz     :     0.025537
      dyz     :     0.052705
      dx2y2   :     0.095380
      dxy     :     0.074729
 10 O s       :     3.535123  s :     3.535123
      pz      :     1.421889  p :     4.628663
      px      :     1.686155
      py      :     1.520619
      dz2     :     0.004073  d :     0.031478
      dxz     :     0.002475
      dyz     :     0.008103
      dx2y2   :     0.007684
      dxy     :     0.009144
 11 C s       :     2.842622  s :     2.842622
      pz      :     1.073423  p :     3.125678
      px      :     1.034521
      py      :     1.017734
      dz2     :     0.014421  d :     0.083818
      dxz     :     0.012865
      dyz     :     0.016974
      dx2y2   :     0.026502
      dxy     :     0.013057
 12 C s       :     2.849561  s :     2.849561
      pz      :     1.059714  p :     3.114520
      px      :     1.028060
      py      :     1.026745
      dz2     :     0.020215  d :     0.102324
      dxz     :     0.025033
      dyz     :     0.014788
      dx2y2   :     0.024182
      dxy     :     0.018107
 13 C s       :     2.839169  s :     2.839169
      pz      :     1.048670  p :     2.945650
      px      :     1.065167
      py      :     0.831813
      dz2     :     0.026336  d :     0.147597
      dxz     :     0.020107
      dyz     :     0.032195
      dx2y2   :     0.036252
      dxy     :     0.032707
 14 O s       :     3.435679  s :     3.435679
      pz      :     1.677927  p :     4.670216
      px      :     1.623402
      py      :     1.368887
      dz2     :     0.002542  d :     0.025232
      dxz     :     0.006752
      dyz     :     0.003763
      dx2y2   :     0.008647
      dxy     :     0.003528
 15 H s       :     0.742084  s :     0.742084
      pz      :     0.069875  p :     0.181669
      px      :     0.074151
      py      :     0.037644
 16 H s       :     0.924658  s :     0.924658
      pz      :     0.014278  p :     0.063897
      px      :     0.034003
      py      :     0.015616
 17 H s       :     0.910258  s :     0.910258
      pz      :     0.029408  p :     0.062911
      px      :     0.024219
      py      :     0.009284
 18 H s       :     0.908346  s :     0.908346
      pz      :     0.028260  p :     0.066609
      px      :     0.023424
      py      :     0.014925
 19 C s       :     2.832883  s :     2.832883
      pz      :     1.046495  p :     3.003053
      px      :     0.964042
      py      :     0.992516
      dz2     :     0.030487  d :     0.115897
      dxz     :     0.016012
      dyz     :     0.019897
      dx2y2   :     0.020694
      dxy     :     0.028807
 20 H s       :     0.913267  s :     0.913267
      pz      :     0.041109  p :     0.065529
      px      :     0.012296
      py      :     0.012125
 21 H s       :     0.903133  s :     0.903133
      pz      :     0.018496  p :     0.068489
      px      :     0.012186
      py      :     0.037808
 22 H s       :     0.880244  s :     0.880244
      pz      :     0.035486  p :     0.068175
      px      :     0.014396
      py      :     0.018293
 23 H s       :     0.890552  s :     0.890552
      pz      :     0.024376  p :     0.067405
      px      :     0.022814
      py      :     0.020214
 24 H s       :     0.884541  s :     0.884541
      pz      :     0.018006  p :     0.078150
      px      :     0.020056
      py      :     0.040088
 25 H s       :     0.899967  s :     0.899967
      pz      :     0.020809  p :     0.066434
      px      :     0.021678
      py      :     0.023947
 26 H s       :     0.901592  s :     0.901592
      pz      :     0.014062  p :     0.067158
      px      :     0.039744
      py      :     0.013353


                      *****************************
                      * MAYER POPULATION ANALYSIS *
                      *****************************

  NA   - Mulliken gross atomic population
  ZA   - Total nuclear charge
  QA   - Mulliken gross atomic charge
  VA   - Mayer's total valence
  BVA  - Mayer's bonded valence
  FA   - Mayer's free valence

  ATOM       NA         ZA         QA         VA         BVA        FA
  0 C      6.0110     6.0000    -0.0110     3.8412     3.8412     0.0000
  1 C      6.0179     6.0000    -0.0179     3.8609     3.8609     0.0000
  2 C      6.0528     6.0000    -0.0528     3.8810     3.8810    -0.0000
  3 C      5.8270     6.0000     0.1730     3.8684     3.8684    -0.0000
  4 C      6.0853     6.0000    -0.0853     3.8892     3.8892     0.0000
  5 C      6.0150     6.0000    -0.0150     3.8850     3.8850     0.0000
  6 H      0.9826     1.0000     0.0174     0.9844     0.9844     0.0000
  7 H      0.9925     1.0000     0.0075     0.9955     0.9955     0.0000
  8 N      7.3424     7.0000    -0.3424     3.1416     3.1416    -0.0000
  9 C      5.8449     6.0000     0.1551     4.2416     4.2416     0.0000
 10 O      8.2422     8.0000    -0.2422     2.2829     2.2829    -0.0000
 11 C      5.9936     6.0000     0.0064     3.8629     3.8629    -0.0000
 12 C      6.2336     6.0000    -0.2336     4.0524     4.0524     0.0000
 13 C      5.7647     6.0000     0.2353     3.9350     3.9350     0.0000
 14 O      8.3240     8.0000    -0.3240     2.0939     2.0939     0.0000
 15 H      0.8277     1.0000     0.1723     1.0105     1.0105    -0.0000
 16 H      0.9761     1.0000     0.0239     0.9786     0.9786    -0.0000
 17 H      0.9661     1.0000     0.0339     0.9945     0.9945     0.0000
 18 H      0.9750     1.0000     0.0250     0.9831     0.9831    -0.0000
 19 C      5.8348     6.0000     0.1652     3.8454     3.8454     0.0000
 20 H      0.9542     1.0000     0.0458     0.9752     0.9752    -0.0000
 21 H      0.9415     1.0000     0.0585     1.0175     1.0175    -0.0000
 22 H      0.9287     1.0000     0.0713     0.9872     0.9872     0.0000
 23 H      0.9436     1.0000     0.0564     1.0071     1.0071     0.0000
 24 H      0.9628     1.0000     0.0372     1.0411     1.0411    -0.0000
 25 H      0.9779     1.0000     0.0221     0.9849     0.9849     0.0000
 26 H      0.9821     1.0000     0.0179     0.9849     0.9849     0.0000

  Mayer bond orders larger than 0.100000
B(  0-C ,  1-C ) :   1.3824 B(  0-C ,  5-C ) :   1.4010 B(  0-C , 26-H ) :   0.9923 
B(  1-C ,  2-C ) :   1.3967 B(  1-C , 25-H ) :   0.9858 B(  2-C ,  3-C ) :   1.3925 
B(  2-C , 24-H ) :   0.9817 B(  3-C ,  4-C ) :   1.3697 B(  3-C ,  8-N ) :   0.9861 
B(  4-C ,  5-C ) :   1.3942 B(  4-C ,  7-H ) :   0.9859 B(  5-C ,  6-H ) :   0.9854 
B(  8-N ,  9-C ) :   1.1011 B(  8-N , 19-C ) :   0.9406 B(  9-C , 10-O ) :   2.0796 
B(  9-C , 11-C ) :   0.9716 B( 11-C , 12-C ) :   1.0381 B( 11-C , 22-H ) :   0.9234 
B( 11-C , 23-H ) :   0.9456 B( 12-C , 13-C ) :   1.0044 B( 12-C , 18-H ) :   0.9270 
B( 12-C , 19-C ) :   1.0021 B( 13-C , 14-O ) :   1.0201 B( 13-C , 16-H ) :   0.9560 
B( 13-C , 17-H ) :   0.9503 B( 14-O , 15-H ) :   0.9827 B( 19-C , 20-H ) :   0.9484 
B( 19-C , 21-H ) :   0.9442 

-------
TIMINGS
-------

Total SCF time: 0 days 0 hours 1 min 47 sec 

Total time                  ....     107.163 sec
Sum of individual times     ....     106.931 sec  ( 99.8%)

Fock matrix formation       ....     104.658 sec  ( 97.7%)
  XC integration            ....       4.779 sec  (  4.6% of F)
    Basis function eval.    ....       1.422 sec  ( 29.8% of XC)
    Density eval.           ....       0.940 sec  ( 19.7% of XC)
    XC-Functional eval.     ....       1.078 sec  ( 22.5% of XC)
    XC-Potential eval.      ....       1.210 sec  ( 25.3% of XC)
Diagonalization             ....       0.010 sec  (  0.0%)
Density matrix formation    ....       0.008 sec  (  0.0%)
Population analysis         ....       0.008 sec  (  0.0%)
Initial guess               ....       0.009 sec  (  0.0%)
Orbital Transformation      ....       0.000 sec  (  0.0%)
Orbital Orthonormalization  ....       0.007 sec  (  0.0%)
DIIS solution               ....       0.002 sec  (  0.0%)
SOSCF solution              ....       0.029 sec  (  0.0%)
Grid generation             ....       2.206 sec  (  2.1%)


-------------------------------------------------------------------------------
                          DFT DISPERSION CORRECTION                            
                                                                               
                              DFTD3 V3.1  Rev 1                                
                              USING zero damping                               
-------------------------------------------------------------------------------
The omegaB97X-D3 functional is recognized. Fit by Chai et al.
Active option DFTDOPT                   ...         3   

molecular C6(AA) [au] = 7319.938370 


            DFT-D V3
 parameters
 s6 scaling factor         :     1.0000 
 rs6 scaling factor        :     1.2810 
 s8 scaling factor         :     1.0000 
 rs8 scaling factor        :     1.0940 
 Damping factor alpha6     :    14.0000 
 Damping factor alpha8     :    16.0000 
 ad hoc parameters k1-k3   :    16.0000     1.3333    -4.0000 

 Edisp/kcal,au: -6.654811579565  -0.010605116169 
 E6   /kcal   :  -2.888680801 
 E8   /kcal   :  -3.766130779 
 % E8         :  56.592598210 

-------------------------   ----------------
Dispersion correction           -0.010605116
-------------------------   ----------------


-------------------------   --------------------
FINAL SINGLE POINT ENERGY      -631.589832077963
-------------------------   --------------------

                                *** OPTIMIZATION RUN DONE ***

                            ***************************************
                            *     ORCA property calculations      *
                            ***************************************

                                    ---------------------
                                    Active property flags
                                    ---------------------
   (+) Dipole Moment


------------------------------------------------------------------------------
                       ORCA ELECTRIC PROPERTIES CALCULATION
------------------------------------------------------------------------------

Dipole Moment Calculation                       ... on
Quadrupole Moment Calculation                   ... off
Polarizability Calculation                      ... off
GBWName                                         ... 042259589.gbw
Electron density file                           ... 042259589.scfp
The origin for moment calculation is the CENTER OF MASS  = ( 0.001633, -0.006108  0.031727)

-------------
DIPOLE MOMENT
-------------
                                X             Y             Z
Electronic contribution:     -4.23810       3.14346       0.80146
Nuclear contribution   :      5.36531      -3.99352      -1.65156
                        -----------------------------------------
Total Dipole Moment    :      1.12722      -0.85006      -0.85010
                        -----------------------------------------
Magnitude (a.u.)       :      1.64800
Magnitude (Debye)      :      4.18887



--------------------
Rotational spectrum 
--------------------
 
Rotational constants in cm-1:     0.042418     0.014619     0.011991 
Rotational constants in MHz :  1271.668946   438.277088   359.476925 

 Dipole components along the rotational axes: 
x,y,z [a.u.] :     1.136718    -0.874234    -0.812082 
x,y,z [Debye]:     2.889309    -2.222127    -2.064149 

 

Timings for individual modules:

Sum of individual times         ...     1905.387 sec (=  31.756 min)
GTO integral calculation        ...        2.999 sec (=   0.050 min)   0.2 %
SCF iterations                  ...     1269.077 sec (=  21.151 min)  66.6 %
SCF Gradient evaluation         ...      631.065 sec (=  10.518 min)  33.1 %
Geometry relaxation             ...        2.246 sec (=   0.037 min)   0.1 %
                             ****ORCA TERMINATED NORMALLY****
TOTAL RUN TIME: 0 days 0 hours 31 minutes 46 seconds 836 msec
