
                                 *****************
                                 * O   R   C   A *
                                 *****************

           --- An Ab Initio, DFT and Semiempirical electronic structure package ---

                  #######################################################
                  #                        -***-                        #
                  #          Department of theory and spectroscopy      #
                  #               Directorship: Frank Neese             #
                  #        Max Planck Institute fuer Kohlenforschung    #
                  #                Kaiser Wilhelm Platz 1               #
                  #                 D-45470 Muelheim/Ruhr               #
                  #                      Germany                        #
                  #                                                     #
                  #                  All rights reserved                #
                  #                        -***-                        #
                  #######################################################


                         Program Version 4.2.0 -  RELEASE  -


 With contributions from (in alphabetic order):
   Daniel Aravena         : Magnetic Suceptibility
   Michael Atanasov       : Ab Initio Ligand Field Theory (pilot matlab implementation)
   Alexander A. Auer      : GIAO ZORA, VPT2
   Ute Becker             : Parallelization
   Giovanni Bistoni       : ED, misc. LED, open-shell LED, HFLED
   Martin Brehm           : Molecular dynamics
   Dmytro Bykov           : SCF Hessian
   Vijay G. Chilkuri      : MRCI spin determinant printing, contributions to CSF-ICE
   Dipayan Datta          : RHF DLPNO-CCSD density
   Achintya Kumar Dutta   : EOM-CC, STEOM-CC
   Dmitry Ganyushin       : Spin-Orbit,Spin-Spin,Magnetic field MRCI
   Miquel Garcia          : C-PCM Hessian, Gaussian charge scheme
   Yang Guo               : DLPNO-NEVPT2, CIM, IAO-localization
   Andreas Hansen         : Spin unrestricted coupled pair/coupled cluster methods
   Benjamin Helmich-Paris : CASSCF linear response (MC-RPA)
   Lee Huntington         : MR-EOM, pCC
   Robert Izsak           : Overlap fitted RIJCOSX, COSX-SCS-MP3, EOM
   Christian Kollmar      : KDIIS, OOCD, Brueckner-CCSD(T), CCSD density
   Simone Kossmann        : Meta GGA functionals, TD-DFT gradient, OOMP2, MP2 Hessian
   Martin Krupicka        : AUTO-CI
   Lucas Lang             : DCDCAS
   Dagmar Lenk            : GEPOL surface, SMD
   Dimitrios Liakos       : Extrapolation schemes; Compound Job, initial MDCI parallelization
   Dimitrios Manganas     : Further ROCIS development; embedding schemes
   Dimitrios Pantazis     : SARC Basis sets
   Taras Petrenko         : DFT Hessian,TD-DFT gradient, ASA, ECA, R-Raman, ABS, FL, XAS/XES, NRVS
   Peter Pinski           : DLPNO-MP2, DLPNO-MP2 Gradient
   Christoph Reimann      : Effective Core Potentials
   Marius Retegan         : Local ZFS, SOC
   Christoph Riplinger    : Optimizer, TS searches, QM/MM, DLPNO-CCSD(T), (RO)-DLPNO pert. Triples
   Tobias Risthaus        : Range-separated hybrids, TD-DFT gradient, RPA, STAB
   Michael Roemelt        : Original ROCIS implementation
   Masaaki Saitow         : Open-shell DLPNO-CCSD energy and density
   Barbara Sandhoefer     : DKH picture change effects
   Avijit Sen             : IP-ROCIS
   Kantharuban Sivalingam : CASSCF convergence, NEVPT2, FIC-MRCI
   Bernardo de Souza      : ESD, SOC TD-DFT
   Georgi Stoychev        : AutoAux, RI-MP2 NMR
   Willem Van den Heuvel  : Paramagnetic NMR
   Boris Wezisla          : Elementary symmetry handling
   Frank Wennmohs         : Technical directorship


 We gratefully acknowledge several colleagues who have allowed us to
 interface, adapt or use parts of their codes:
   Stefan Grimme, W. Hujo, H. Kruse,             : VdW corrections, initial TS optimization,
                  C. Bannwarth                     DFT functionals, gCP, sTDA/sTD-DF
   Ed Valeev, F. Pavosevic, A. Kumar             : LibInt (2-el integral package), F12 methods
   Garnet Chan, S. Sharma, J. Yang, R. Olivares  : DMRG
   Ulf Ekstrom                                   : XCFun DFT Library
   Mihaly Kallay                                 : mrcc  (arbitrary order and MRCC methods)
   Andreas Klamt, Michael Diedenhofen            : otool_cosmo (COSMO solvation model)
   Jiri Pittner, Ondrej Demel                    : Mk-CCSD
   Frank Weinhold                                : gennbo (NPA and NBO analysis)
   Christopher J. Cramer and Donald G. Truhlar   : smd solvation model
   Lars Goerigk                                  : TD-DFT with DH, B97 family of functionals
   V. Asgeirsson, H. Jonsson                     : NEB implementation
   FAccTs GmbH                                   : IRC, NEB, NEB-TS, Multilevel, MM, QM/MM, CI optimization
   S Lehtola, MJT Oliveira, MAL Marques          : LibXC Library


 Your calculation uses the libint2 library for the computation of 2-el integrals
 For citations please refer to: http://libint.valeyev.net

 Your ORCA version has been built with support for libXC version: 4.2.3
 For citations please refer to: https://tddft.org/programs/libxc/

 This ORCA versions uses:
   CBLAS   interface :  Fast vector & matrix operations
   LAPACKE interface :  Fast linear algebra routines
   SCALAPACK package :  Parallel linear algebra routines


Your calculation utilizes the atom-pairwise dispersion correction
with the zero-damping scheme (D30)
Cite in your paper:
S.Grimme, J.Antony, S.Ehrlich and H.Krieg, J.Chem.Phys., 132, (2010), 154104 
   

XCFun DFT library Copyright 2009-2010 Ulf Ekstrom and contributors.
See http://admol.org/xcfun for more information. This is free soft-
ware; see the source code for copying conditions. There is ABSOLUTELY
NO WARRANTY; not even for MERCHANTABILITY or FITNESS FOR A PARTICULAR
PURPOSE. For details see the documentation. Scientific users of this 
library should cite U. Ekstrom, L. Visscher, R. Bast, A. J. Thorvald-
sen and K. Ruud; J.Chem.Theor.Comp. 2010, DOI: 10.1021/ct100117s
XCFun Version 0.99 
----- Orbital basis set information -----
Your calculation utilizes the basis: def2-SVP
   F. Weigend and R. Ahlrichs, Phys. Chem. Chem. Phys. 7, 3297 (2005).

================================================================================
                                        WARNINGS
                       Please study these warnings very carefully!
================================================================================


WARNING: Geometry Optimization
  ===> : Switching off AutoStart
         For restart on a previous wavefunction, please use MOREAD

INFO   : the flag for use of LIBINT has been found!

================================================================================
                                       INPUT FILE
================================================================================
NAME = 043969333.inp
|  1> # ORCA input file
|  2> # -47.11556963
|  3> ! wB97X-D3 def2-SVP Opt
|  4> * xyz 0 1
|  5>    C        4.21410        -1.28550        -0.34050
|  6>    C        3.83420        -0.15530        -1.04410
|  7>    C        2.61080         0.44350        -0.81010
|  8>    C        1.74590        -0.08290         0.14750
|  9>    C        2.13240        -1.21910         0.85660
| 10>    C        3.35720        -1.81200         0.60960
| 11>    H        3.64140        -2.69110         1.16900
| 12>    H        1.48820        -1.64210         1.61130
| 13>    N        0.49350         0.50290         0.39100
| 14>    C        0.13830         1.79220         0.11700
| 15>    O        0.82130         2.63930        -0.40740
| 16>    C       -1.29150         1.98970         0.60420
| 17>    H       -1.86190         2.59890        -0.09460
| 18>    H       -1.25940         2.50850         1.56330
| 19>    C       -1.83690         0.57370         0.75510
| 20>    N       -2.46850         0.14810        -0.47080
| 21>    C       -3.42100        -0.83100        -0.53390
| 22>    N       -3.91130        -1.36690        -1.56800
| 23>    H       -3.53110        -1.04260        -2.44800
| 24>    O       -3.88800        -1.20860         0.67350
| 25>    H       -4.59530        -1.84690         0.50840
| 26>    H       -1.96290         0.33440        -1.32370
| 27>    H       -2.57730         0.47270         1.54960
| 28>    C       -0.56100        -0.23300         1.06450
| 29>    H       -0.62750        -1.25270         0.67750
| 30>    H       -0.38520        -0.27050         2.14580
| 31>    H        2.32820         1.32540        -1.35910
| 32>    H        4.49370         0.26550        -1.78830
| 33>    H        5.16940        -1.75110        -0.52920
| 34> *
| 35> 
| 36>                          ****END OF INPUT****
================================================================================

                       *****************************
                       * Geometry Optimization Run *
                       *****************************

Geometry optimization settings:
Update method            Update   .... BFGS
Choice of coordinates    CoordSys .... Z-matrix Internals
Initial Hessian          InHess   .... Almoef's Model

Convergence Tolerances:
Energy Change            TolE     ....  5.0000e-06 Eh
Max. Gradient            TolMAXG  ....  3.0000e-04 Eh/bohr
RMS Gradient             TolRMSG  ....  1.0000e-04 Eh/bohr
Max. Displacement        TolMAXD  ....  4.0000e-03 bohr
RMS Displacement         TolRMSD  ....  2.0000e-03 bohr
Strict Convergence                ....  False
------------------------------------------------------------------------------
                        ORCA OPTIMIZATION COORDINATE SETUP
------------------------------------------------------------------------------

The optimization will be done in new redundant internal coordinates
Making redundant internal coordinates   ...  (new redundants) done
Evaluating the initial hessian          ...  (Almloef) done
Evaluating the coordinates              ...  done
Calculating the B-matrix                .... done
Calculating the G-matrix                .... done
Diagonalizing the G-matrix              .... done
Small eigenvalue found = 9.657e-03
Small eigenvalue found = 1.513e-02
Small eigenvalue found = 2.111e-02
The first mode is                       ....   75
The number of degrees of freedom        ....   81

    -----------------------------------------------------------------
                    Redundant Internal Coordinates


    -----------------------------------------------------------------
         Definition                    Initial Value    Approx d2E/dq
    -----------------------------------------------------------------
      1. B(C   1,C   0)                  1.3845         0.637643   
      2. B(C   2,C   1)                  1.3820         0.643345   
      3. B(C   3,C   2)                  1.3936         0.616567   
      4. B(C   4,C   3)                  1.3940         0.615748   
      5. B(C   5,C   4)                  1.3830         0.641084   
      6. B(C   5,C   0)                  1.3835         0.639812   
      7. B(H   6,C   5)                  1.0801         0.373502   
      8. B(H   7,C   4)                  1.0787         0.375426   
      9. B(N   8,C   3)                  1.4039         0.531722   
     10. B(C   9,N   8)                  1.3651         0.613167   
     11. B(O  10,C   9)                  1.2079         1.092390   
     12. B(C  11,C   9)                  1.5234         0.382766   
     13. B(H  12,C  11)                  1.0885         0.362108   
     14. B(H  13,C  11)                  1.0909         0.358915   
     15. B(C  14,C  11)                  1.5249         0.380655   
     16. B(N  15,C  14)                  1.4432         0.460220   
     17. B(C  16,N  15)                  1.3674         0.607965   
     18. B(N  17,C  16)                  1.2637         0.889967   
     19. B(H  18,N  17)                  1.0120         0.429557   
     20. B(O  19,C  16)                  1.3485         0.651728   
     21. B(H  20,O  19)                  0.9669         0.506882   
     22. B(H  21,N  15)                  1.0088         0.434541   
     23. B(H  22,C  14)                  1.0907         0.359177   
     24. B(C  23,C  14)                  1.5409         0.358894   
     25. B(C  23,N   8)                  1.4516         0.446281   
     26. B(H  24,C  23)                  1.0927         0.356554   
     27. B(H  25,C  23)                  1.0961         0.352069   
     28. B(H  26,C   2)                  1.0766         0.378306   
     29. B(H  27,C   1)                  1.0797         0.373927   
     30. B(H  28,C   0)                  1.0793         0.374472   
     31. A(C   5,C   0,H  28)          120.2700         0.357159   
     32. A(C   1,C   0,H  28)          120.4088         0.356953   
     33. A(C   1,C   0,C   5)          119.3212         0.438746   
     34. A(C   0,C   1,H  27)          120.0546         0.356865   
     35. A(C   0,C   1,C   2)          120.7011         0.439182   
     36. A(C   2,C   1,H  27)          119.2437         0.357405   
     37. A(C   1,C   2,H  26)          120.0630         0.358114   
     38. A(C   3,C   2,H  26)          119.7961         0.355536   
     39. A(C   1,C   2,C   3)          120.1368         0.436528   
     40. A(C   4,C   3,N   8)          119.9482         0.419019   
     41. A(C   2,C   3,C   4)          119.0347         0.433096   
     42. A(C   2,C   3,N   8)          121.0116         0.419118   
     43. A(C   3,C   4,C   5)          120.2737         0.436147   
     44. A(C   3,C   4,H   7)          120.6614         0.354996   
     45. A(C   5,C   4,H   7)          119.0617         0.357435   
     46. A(C   0,C   5,H   6)          120.1620         0.357002   
     47. A(C   0,C   5,C   4)          120.5316         0.439172   
     48. A(C   4,C   5,H   6)          119.3062         0.357122   
     49. A(C   3,N   8,C   9)          126.2560         0.415993   
     50. A(C   9,N   8,C  23)          112.5142         0.403282   
     51. A(C   3,N   8,C  23)          121.1301         0.393306   
     52. A(N   8,C   9,C  11)          107.6059         0.395067   
     53. A(N   8,C   9,O  10)          127.0387         0.473868   
     54. A(O  10,C   9,C  11)          125.3539         0.437804   
     55. A(H  12,C  11,H  13)          108.2813         0.290943   
     56. A(H  13,C  11,C  14)          111.4158         0.325145   
     57. A(H  12,C  11,C  14)          113.3167         0.325619   
     58. A(C   9,C  11,C  14)          104.2973         0.366040   
     59. A(C   9,C  11,H  13)          108.3737         0.325440   
     60. A(C   9,C  11,H  12)          111.0437         0.325915   
     61. A(C  11,C  14,N  15)          110.2616         0.375463   
     62. A(H  22,C  14,C  23)          111.5518         0.322058   
     63. A(N  15,C  14,C  23)          112.2431         0.371671   
     64. A(C  11,C  14,C  23)          102.1138         0.362031   
     65. A(N  15,C  14,H  22)          107.1191         0.333523   
     66. A(C  11,C  14,H  22)          113.6324         0.325184   
     67. A(C  16,N  15,H  21)          116.2509         0.357732   
     68. A(C  14,N  15,H  21)          116.3806         0.341320   
     69. A(C  14,N  15,C  16)          123.7233         0.404867   
     70. A(N  17,C  16,O  19)          118.6574         0.461531   
     71. A(N  15,C  16,O  19)          113.6032         0.430747   
     72. A(N  15,C  16,N  17)          127.7094         0.455716   
     73. A(C  16,N  17,H  18)          115.4624         0.381175   
     74. A(C  16,O  19,H  20)          106.5759         0.371676   
     75. A(H  24,C  23,H  25)          109.0996         0.289362   
     76. A(C  14,C  23,H  25)          110.4127         0.321006   
     77. A(N   8,C  23,H  25)          111.0098         0.330731   
     78. A(C  14,C  23,H  24)          111.5334         0.321671   
     79. A(N   8,C  23,H  24)          110.6697         0.331424   
     80. A(N   8,C  23,C  14)          104.0602         0.369710   
     81. D(C   2,C   1,C   0,C   5)     -0.2859         0.028235   
     82. D(H  27,C   1,C   0,H  28)      0.1026         0.028235   
     83. D(C   2,C   1,C   0,H  28)    179.8118         0.028235   
     84. D(H  27,C   1,C   0,C   5)   -179.9952         0.028235   
     85. D(C   3,C   2,C   1,H  27)   -179.9077         0.028777   
     86. D(H  26,C   2,C   1,C   0)    179.6443         0.028777   
     87. D(H  26,C   2,C   1,H  27)     -0.6441         0.028777   
     88. D(C   3,C   2,C   1,C   0)      0.3808         0.028777   
     89. D(N   8,C   3,C   2,H  26)      1.3566         0.026288   
     90. D(C   4,C   3,C   2,H  26)   -179.4915         0.026288   
     91. D(N   8,C   3,C   2,C   1)   -179.3779         0.026288   
     92. D(C   4,C   3,C   2,C   1)     -0.2259         0.026288   
     93. D(H   7,C   4,C   3,C   2)    179.3179         0.026214   
     94. D(C   5,C   4,C   3,C   2)     -0.0173         0.026214   
     95. D(C   5,C   4,C   3,N   8)    179.1439         0.026214   
     96. D(H   7,C   4,C   3,N   8)     -1.5209         0.026214   
     97. D(H   6,C   5,C   4,H   7)      0.5776         0.028561   
     98. D(C   0,C   5,C   4,C   3)      0.1103         0.028561   
     99. D(H   6,C   5,C   4,C   3)    179.9234         0.028561   
    100. D(H   6,C   5,C   0,H  28)      0.1308         0.028441   
    101. D(C   0,C   5,C   4,H   7)   -179.2355         0.028561   
    102. D(C   4,C   5,C   0,H  28)    179.9423         0.028441   
    103. D(C   4,C   5,C   0,C   1)      0.0399         0.028441   
    104. D(H   6,C   5,C   0,C   1)   -179.7716         0.028441   
    105. D(C  23,N   8,C   3,C   4)    -17.8736         0.022459   
    106. D(C  23,N   8,C   3,C   2)    161.2707         0.022459   
    107. D(C   9,N   8,C   3,C   4)    158.2181         0.022459   
    108. D(C   9,N   8,C   3,C   2)    -22.6376         0.022459   
    109. D(C  11,C   9,N   8,C   3)   -177.6555         0.030392   
    110. D(O  10,C   9,N   8,C  23)    178.2879         0.030392   
    111. D(O  10,C   9,N   8,C   3)      1.9089         0.030392   
    112. D(C  11,C   9,N   8,C  23)     -1.2765         0.030392   
    113. D(C  14,C  11,C   9,O  10)    162.4430         0.010923   
    114. D(H  13,C  11,C   9,O  10)    -78.7610         0.010923   
    115. D(H  13,C  11,C   9,N   8)    100.8127         0.010923   
    116. D(H  12,C  11,C   9,O  10)     40.0514         0.010923   
    117. D(H  12,C  11,C   9,N   8)   -140.3750         0.010923   
    118. D(C  14,C  11,C   9,N   8)    -17.9834         0.010923   
    119. D(C  23,C  14,C  11,H  12)    149.3881         0.011546   
    120. D(C  23,C  14,C  11,C   9)     28.5006         0.011546   
    121. D(H  22,C  14,C  11,H  13)     32.0635         0.011546   
    122. D(H  22,C  14,C  11,H  12)    -90.3458         0.011546   
    123. D(H  22,C  14,C  11,C   9)    148.7667         0.011546   
    124. D(N  15,C  14,C  11,H  13)    152.3301         0.011546   
    125. D(N  15,C  14,C  11,H  12)     29.9208         0.011546   
    126. D(C  23,C  14,C  11,H  13)    -88.2026         0.011546   
    127. D(N  15,C  14,C  11,C   9)    -90.9667         0.011546   
    128. D(H  21,N  15,C  14,C  23)    -67.5433         0.018081   
    129. D(H  21,N  15,C  14,H  22)    169.6887         0.018081   
    130. D(H  21,N  15,C  14,C  11)     45.5763         0.018081   
    131. D(C  16,N  15,C  14,C  23)     90.0761         0.018081   
    132. D(C  16,N  15,C  14,H  22)    -32.6918         0.018081   
    133. D(C  16,N  15,C  14,C  11)   -156.8042         0.018081   
    134. D(O  19,C  16,N  15,H  21)    168.4245         0.029841   
    135. D(O  19,C  16,N  15,C  14)     10.7786         0.029841   
    136. D(N  17,C  16,N  15,H  21)    -13.6143         0.029841   
    137. D(N  17,C  16,N  15,C  14)   -171.2602         0.029841   
    138. D(H  18,N  17,C  16,O  19)    179.5202         0.062728   
    139. D(H  18,N  17,C  16,N  15)      1.6493         0.062728   
    140. D(H  20,O  19,C  16,N  17)     -2.4183         0.031405   
    141. D(H  20,O  19,C  16,N  15)    175.7437         0.031405   
    142. D(C  14,C  23,N   8,C   9)     19.7832         0.016987   
    143. D(C  14,C  23,N   8,C   3)   -163.6277         0.016987   
    144. D(H  25,C  23,C  14,H  22)    -31.7809         0.010338   
    145. D(H  25,C  23,C  14,C  11)     89.9269         0.010338   
    146. D(H  24,C  23,C  14,H  22)     89.6974         0.010338   
    147. D(H  24,C  23,C  14,N  15)    -30.5314         0.010338   
    148. D(H  24,C  23,C  14,C  11)   -148.5948         0.010338   
    149. D(N   8,C  23,C  14,H  22)   -150.9617         0.010338   
    150. D(N   8,C  23,C  14,N  15)     88.8095         0.010338   
    151. D(N   8,C  23,C  14,C  11)    -29.2539         0.010338   
    152. D(H  25,C  23,N   8,C   9)    -98.9900         0.016987   
    153. D(H  25,C  23,N   8,C   3)     77.5991         0.016987   
    154. D(H  25,C  23,C  14,N  15)   -152.0097         0.010338   
    155. D(H  24,C  23,N   8,C   9)    139.7100         0.016987   
    156. D(H  24,C  23,N   8,C   3)    -43.7009         0.016987   
    -----------------------------------------------------------------

Number of atoms                         .... 29
Number of degrees of freedom            .... 156

         *************************************************************
         *                GEOMETRY OPTIMIZATION CYCLE   1            *
         *************************************************************
---------------------------------
CARTESIAN COORDINATES (ANGSTROEM)
---------------------------------
  C      4.214100   -1.285500   -0.340500
  C      3.834200   -0.155300   -1.044100
  C      2.610800    0.443500   -0.810100
  C      1.745900   -0.082900    0.147500
  C      2.132400   -1.219100    0.856600
  C      3.357200   -1.812000    0.609600
  H      3.641400   -2.691100    1.169000
  H      1.488200   -1.642100    1.611300
  N      0.493500    0.502900    0.391000
  C      0.138300    1.792200    0.117000
  O      0.821300    2.639300   -0.407400
  C     -1.291500    1.989700    0.604200
  H     -1.861900    2.598900   -0.094600
  H     -1.259400    2.508500    1.563300
  C     -1.836900    0.573700    0.755100
  N     -2.468500    0.148100   -0.470800
  C     -3.421000   -0.831000   -0.533900
  N     -3.911300   -1.366900   -1.568000
  H     -3.531100   -1.042600   -2.448000
  O     -3.888000   -1.208600    0.673500
  H     -4.595300   -1.846900    0.508400
  H     -1.962900    0.334400   -1.323700
  H     -2.577300    0.472700    1.549600
  C     -0.561000   -0.233000    1.064500
  H     -0.627500   -1.252700    0.677500
  H     -0.385200   -0.270500    2.145800
  H      2.328200    1.325400   -1.359100
  H      4.493700    0.265500   -1.788300
  H      5.169400   -1.751100   -0.529200

----------------------------
CARTESIAN COORDINATES (A.U.)
----------------------------
  NO LB      ZA    FRAG     MASS         X           Y           Z
   0 C     6.0000    0    12.011    7.963495   -2.429243   -0.643452
   1 C     6.0000    0    12.011    7.245588   -0.293474   -1.973063
   2 C     6.0000    0    12.011    4.933697    0.838094   -1.530867
   3 C     6.0000    0    12.011    3.299273   -0.156658    0.278735
   4 C     6.0000    0    12.011    4.029652   -2.303765    1.618739
   5 C     6.0000    0    12.011    6.344189   -3.424184    1.151977
   6 H     1.0000    0     1.008    6.881249   -5.085442    2.209090
   7 H     1.0000    0     1.008    2.812290   -3.103119    3.044916
   8 N     7.0000    0    14.007    0.932580    0.950343    0.738883
   9 C     6.0000    0    12.011    0.261349    3.386767    0.221098
  10 O     8.0000    0    15.999    1.552032    4.987554   -0.769874
  11 C     6.0000    0    12.011   -2.440581    3.759988    1.141773
  12 H     1.0000    0     1.008   -3.518481    4.911209   -0.178768
  13 H     1.0000    0     1.008   -2.379921    4.740378    2.954209
  14 C     6.0000    0    12.011   -3.471238    1.084136    1.426932
  15 N     7.0000    0    14.007   -4.664789    0.279868   -0.889683
  16 C     6.0000    0    12.011   -6.464753   -1.570362   -1.008925
  17 N     7.0000    0    14.007   -7.391286   -2.583067   -2.963091
  18 H     1.0000    0     1.008   -6.672812   -1.970228   -4.626050
  19 O     8.0000    0    15.999   -7.347255   -2.283923    1.272731
  20 H     1.0000    0     1.008   -8.683859   -3.490135    0.960737
  21 H     1.0000    0     1.008   -3.709343    0.631924   -2.501430
  22 H     1.0000    0     1.008   -4.870391    0.893274    2.928320
  23 C     6.0000    0    12.011   -1.060136   -0.440306    2.011613
  24 H     1.0000    0     1.008   -1.185803   -2.367260    1.280289
  25 H     1.0000    0     1.008   -0.727923   -0.511171    4.054974
  26 H     1.0000    0     1.008    4.399660    2.504643   -2.568327
  27 H     1.0000    0     1.008    8.491862    0.501722   -3.379397
  28 H     1.0000    0     1.008    9.768750   -3.309099   -1.000043

--------------------------------
INTERNAL COORDINATES (ANGSTROEM)
--------------------------------
 C      0   0   0     0.000000000000     0.00000000     0.00000000
 C      1   0   0     1.384459826069     0.00000000     0.00000000
 C      2   1   0     1.382036540761   120.70109492     0.00000000
 C      3   2   1     1.393609245807   120.13678447     0.38075238
 C      4   3   2     1.393971125956   119.03474156   359.77411230
 C      5   4   3     1.382994739686   120.27365376     0.00000000
 H      6   5   4     1.080053151470   119.30617356   179.92336719
 H      5   4   3     1.078654128996   120.66137502   179.31791575
 N      4   3   2     1.403908704297   121.01158830   180.62213473
 C      9   4   3     1.365114475053   126.25603505   337.36242542
 O     10   9   4     1.207916706565   127.03874969     1.90892564
 C     10   9   4     1.523383776335   107.60585405   182.34452088
 H     12  10   9     1.088486214887   111.04368721   219.62504494
 H     12  10   9     1.090897181223   108.37373169   100.81265551
 C     12  10   9     1.524889494357   104.29731953   342.01664679
 N     15  12  10     1.443220263854   110.26160890   269.03327293
 C     16  15  12     1.367433607163   123.72332791   203.19577651
 N     17  16  15     1.263703173218   127.70942783   188.73980940
 H     18  17  16     1.011989392237   115.46241227     1.64925819
 O     17  16  15     1.348512335872   113.60321000    10.77857944
 H     20  17  16     0.966932360613   106.57591088   175.74369564
 H     16  15  12     1.008849572533   116.38060682    45.57628490
 H     15  12  10     1.090698588062   113.63240104   148.76668819
 C      9   4   3     1.451592680472   121.13013696   161.27066709
 H     24   9   4     1.092693616711   110.66966093   316.29906431
 H     24   9   4     1.096139398069   111.00980814    77.59910541
 H      3   2   1     1.076573903641   120.06299832   179.64434736
 H      2   1   3     1.079743733485   120.05455489   180.29075506
 H      1   2   3     1.079346626437   120.40879892   179.81181063

---------------------------
INTERNAL COORDINATES (A.U.)
---------------------------
 C      0   0   0     0.000000000000     0.00000000     0.00000000
 C      1   0   0     2.616249914687     0.00000000     0.00000000
 C      2   1   0     2.611670569111   120.70109492     0.00000000
 C      3   2   1     2.633539812277   120.13678447     0.38075238
 C      4   3   2     2.634223666651   119.03474156   359.77411230
 C      5   4   3     2.613481302661   120.27365376     0.00000000
 H      6   5   4     2.041004666357   119.30617356   179.92336719
 H      5   4   3     2.038360897026   120.66137502   179.31791575
 N      4   3   2     2.653002968149   121.01158830   180.62213473
 C      9   4   3     2.579692499302   126.25603505   337.36242542
 O     10   9   4     2.282631767997   127.03874969     1.90892564
 C     10   9   4     2.878778134131   107.60585405   182.34452088
 H     12  10   9     2.056940846686   111.04368721   219.62504494
 H     12  10   9     2.061496912778   108.37373169   100.81265551
 C     12  10   9     2.881623528828   104.29731953   342.01664679
 N     15  12  10     2.727291049610   110.26160890   269.03327293
 C     16  15  12     2.584075023859   123.72332791   203.19577651
 N     17  16  15     2.388052911948   127.70942783   188.73980940
 H     18  17  16     1.912382801761   115.46241227     1.64925819
 O     17  16  15     2.548319003013   113.60321000    10.77857944
 H     20  17  16     1.827237351584   106.57591088   175.74369564
 H     16  15  12     1.906449402411   116.38060682    45.57628490
 H     15  12  10     2.061121626091   113.63240104   148.76668819
 C      9   4   3     2.743112624097   121.13013696   161.27066709
 H     24   9   4     2.064891683867   110.66966093   316.29906431
 H     24   9   4     2.071403266953   111.00980814    77.59910541
 H      3   2   1     2.034429840807   120.06299832   179.64434736
 H      2   1   3     2.040419951104   120.05455489   180.29075506
 H      1   2   3     2.039669527537   120.40879892   179.81181063

---------------------
BASIS SET INFORMATION
---------------------
There are 4 groups of distinct atoms

 Group   1 Type C   : 7s4p1d contracted to 3s2p1d pattern {511/31/1}
 Group   2 Type H   : 4s1p contracted to 2s1p pattern {31/1}
 Group   3 Type N   : 7s4p1d contracted to 3s2p1d pattern {511/31/1}
 Group   4 Type O   : 7s4p1d contracted to 3s2p1d pattern {511/31/1}

Atom   0C    basis set group =>   1
Atom   1C    basis set group =>   1
Atom   2C    basis set group =>   1
Atom   3C    basis set group =>   1
Atom   4C    basis set group =>   1
Atom   5C    basis set group =>   1
Atom   6H    basis set group =>   2
Atom   7H    basis set group =>   2
Atom   8N    basis set group =>   3
Atom   9C    basis set group =>   1
Atom  10O    basis set group =>   4
Atom  11C    basis set group =>   1
Atom  12H    basis set group =>   2
Atom  13H    basis set group =>   2
Atom  14C    basis set group =>   1
Atom  15N    basis set group =>   3
Atom  16C    basis set group =>   1
Atom  17N    basis set group =>   3
Atom  18H    basis set group =>   2
Atom  19O    basis set group =>   4
Atom  20H    basis set group =>   2
Atom  21H    basis set group =>   2
Atom  22H    basis set group =>   2
Atom  23C    basis set group =>   1
Atom  24H    basis set group =>   2
Atom  25H    basis set group =>   2
Atom  26H    basis set group =>   2
Atom  27H    basis set group =>   2
Atom  28H    basis set group =>   2
------------------------------------------------------------------------------
                           ORCA GTO INTEGRAL CALCULATION
------------------------------------------------------------------------------

                         BASIS SET STATISTICS AND STARTUP INFO

 # of primitive gaussian shells          ...  257
 # of primitive gaussian functions       ...  475
 # of contracted shells                  ...  135
 # of contracted basis functions         ...  289
 Highest angular momentum                ...    2
 Maximum contraction depth               ...    5
 Integral package used                   ... LIBINT
 Integral threshhold            Thresh   ...  2.500e-11
 Primitive cut-off              TCut     ...  2.500e-12


------------------------------ INTEGRAL EVALUATION ----------------------------


 * One electron integrals 
 Pre-screening matrix                    ... done
 Shell pair data                         ... done (   0.002 sec)

-------------------------------------------------------------------------------
                                 ORCA SCF
-------------------------------------------------------------------------------

------------
SCF SETTINGS
------------
Hamiltonian:
 Density Functional     Method          .... DFT(GTOs)
 Exchange Functional    Exchange        .... WB97X-D3
 Correlation Functional Correlation     .... WB97X-D3
 Gradients option       PostSCFGGA      .... off
 Hybrid DFT is turned on
   Fraction HF Exchange ScalHFX         ....  0.195728
   Scaling of DF-GGA-X  ScalDFX         ....  0.000000
   Scaling of DF-GGA-C  ScalDFC         ....  1.000000
   Scaling of DF-LDA-C  ScalLDAC        ....  1.000000
   Perturbative correction              ....  0.000000
   Density functional embedding theory  .... OFF
 Long-range corrected/Screened/Range-Separated Hybrid DFT is turned on
   Amount of maximum screened exact exchange              ....  0.804272
   Range separation parameter mu (erf(mu*r12)/r12)        ....  0.250000


General Settings:
 Integral files         IntName         .... 043969333
 Hartree-Fock type      HFTyp           .... RHF
 Total Charge           Charge          ....    0
 Multiplicity           Mult            ....    1
 Number of Electrons    NEL             ....  116
 Basis Dimension        Dim             ....  289
 Nuclear Repulsion      ENuc            ....   1076.0748390061 Eh

Convergence Acceleration:
 DIIS                   CNVDIIS         .... on
   Start iteration      DIISMaxIt       ....    12
   Startup error        DIISStart       ....  0.200000
   # of expansion vecs  DIISMaxEq       ....     5
   Bias factor          DIISBfac        ....   1.050
   Max. coefficient     DIISMaxC        ....  10.000
 Newton-Raphson         CNVNR           .... off
 SOSCF                  CNVSOSCF        .... on
   Start iteration      SOSCFMaxIt      ....   150
   Startup grad/error   SOSCFStart      ....  0.003300
 Level Shifting         CNVShift        .... on
   Level shift para.    LevelShift      ....    0.2500
   Turn off err/grad.   ShiftErr        ....    0.0010
 Zerner damping         CNVZerner       .... off
 Static damping         CNVDamp         .... on
   Fraction old density DampFac         ....    0.7000
   Max. Damping (<1)    DampMax         ....    0.9800
   Min. Damping (>=0)   DampMin         ....    0.0000
   Turn off err/grad.   DampErr         ....    0.1000
 Fernandez-Rico         CNVRico         .... off

SCF Procedure:
 Maximum # iterations   MaxIter         ....   125
 SCF integral mode      SCFMode         .... Direct
   Integral package                     .... LIBINT
 Reset frequency        DirectResetFreq ....    20
 Integral Threshold     Thresh          ....  2.500e-11 Eh
 Primitive CutOff       TCut            ....  2.500e-12 Eh

Convergence Tolerance:
 Convergence Check Mode ConvCheckMode   .... Total+1el-Energy
 Convergence forced     ConvForced      .... 0
 Energy Change          TolE            ....  1.000e-08 Eh
 1-El. energy change                    ....  1.000e-05 Eh
 Orbital Gradient       TolG            ....  1.000e-05
 Orbital Rotation angle TolX            ....  1.000e-05
 DIIS Error             TolErr          ....  5.000e-07


Diagonalization of the overlap matrix:
Smallest eigenvalue                        ... 2.581e-04
Time for diagonalization                   ...    0.055 sec
Threshold for overlap eigenvalues          ... 1.000e-08
Number of eigenvalues below threshold      ... 0
Time for construction of square roots      ...    0.005 sec
Total time needed                          ...    0.060 sec

-------------------
DFT GRID GENERATION
-------------------

General Integration Accuracy     IntAcc      ...  4.340
Radial Grid Type                 RadialGrid  ... Gauss-Chebyshev
Angular Grid (max. acc.)         AngularGrid ... Lebedev-110
Angular grid pruning method      GridPruning ... 3 (G Style)
Weight generation scheme         WeightScheme... Becke
Basis function cutoff            BFCut       ...    1.0000e-11
Integration weight cutoff        WCut        ...    1.0000e-14
Grids for H and He will be reduced by one unit

# of grid points (after initial pruning)     ...  37076 (   0.0 sec)
# of grid points (after weights+screening)   ...  33550 (   0.2 sec)
nearest neighbour list constructed           ...    0.0 sec
Grid point re-assignment to atoms done       ...    0.0 sec
Grid point division into batches done        ...    0.0 sec
Reduced shell lists constructed in    0.3 sec

Total number of grid points                  ...    33550
Total number of batches                      ...      536
Average number of points per batch           ...       62
Average number of grid points per atom       ...     1157
Average number of shells per batch           ...    76.04 (56.32%)
Average number of basis functions per batch  ...   155.45 (53.79%)
Average number of large shells per batch     ...    53.28 (70.07%)
Average number of large basis fcns per batch ...   108.79 (69.99%)
Maximum spatial batch extension              ...  19.49, 25.60, 19.00 au
Average spatial batch extension              ...   3.32,  3.64,  3.53 au

Time for grid setup =    0.492 sec

------------------------------
INITIAL GUESS: MODEL POTENTIAL
------------------------------
Loading Hartree-Fock densities                     ... done
Calculating cut-offs                               ... done
Setting up the integral package                    ... done
Initializing the effective Hamiltonian             ... done
Starting the Coulomb interaction                   ... done (   0.4 sec)
Reading the grid                                   ... done
Mapping shells                                     ... done
Starting the XC term evaluation                    ... done (   0.4 sec)
  promolecular density results
     # of electrons  =    115.980917578
     EX              =    -96.139574770
     EC              =     -3.914477347
     EX+EC           =   -100.054052116
Transforming the Hamiltonian                       ... done (   0.0 sec)
Diagonalizing the Hamiltonian                      ... done (   0.0 sec)
Back transforming the eigenvectors                 ... done (   0.0 sec)
Now organizing SCF variables                       ... done
                      ------------------
                      INITIAL GUESS DONE (   1.4 sec)
                      ------------------
--------------
SCF ITERATIONS
--------------
ITER       Energy         Delta-E        Max-DP      RMS-DP      [F,P]     Damp
               ***  Starting incremental Fock matrix formation  ***
  0   -740.5682195888   0.000000000000 0.09520575  0.00190627  0.2698463 0.7000
  1   -740.7400118774  -0.171792288560 0.05588784  0.00136223  0.1416060 0.7000
                               ***Turning on DIIS***
  2   -740.8223513227  -0.082339445308 0.08891685  0.00258753  0.0587517 0.0000
  3   -740.9578802588  -0.135528936138 0.05230305  0.00084390  0.0670702 0.0000
  4   -740.9782400355  -0.020359776640 0.00852075  0.00018278  0.0079933 0.0000
  5   -740.9788878614  -0.000647825902 0.00437347  0.00007815  0.0061747 0.0000
                      *** Initiating the SOSCF procedure ***
                           *** Shutting down DIIS ***
                      *** Re-Reading the Fockian *** 
                      *** Removing any level shift *** 
ITER      Energy       Delta-E        Grad      Rot      Max-DP    RMS-DP
  6   -740.97899044  -0.0001025834  0.000841  0.000841  0.001915  0.000050
               *** Restarting incremental Fock matrix formation ***
  7   -740.97901128  -0.0000208373  0.000318  0.000669  0.001372  0.000026
  8   -740.97901231  -0.0000010295  0.000341  0.000479  0.000817  0.000011
  9   -740.97901633  -0.0000040199  0.000045  0.000119  0.000238  0.000005
 10   -740.97901643  -0.0000000957  0.000034  0.000075  0.000099  0.000002
 11   -740.97901650  -0.0000000696  0.000006  0.000011  0.000023  0.000000
 12   -740.97901650  -0.0000000026  0.000005  0.000005  0.000011  0.000000
                  ***Gradient check signals convergence***
              ***Rediagonalizing the Fockian in SOSCF/NRSCF***

               *****************************************************
               *                     SUCCESS                       *
               *           SCF CONVERGED AFTER  13 CYCLES          *
               *****************************************************

Setting up the final grid:

General Integration Accuracy     IntAcc      ...  4.670
Radial Grid Type                 RadialGrid  ... Gauss-Chebyshev
Angular Grid (max. acc.)         AngularGrid ... Lebedev-302
Angular grid pruning method      GridPruning ... 3 (G Style)
Weight generation scheme         WeightScheme... Becke
Basis function cutoff            BFCut       ...    1.0000e-11
Integration weight cutoff        WCut        ...    1.0000e-14
Grids for H and He will be reduced by one unit

# of grid points (after initial pruning)     ... 143514 (   0.1 sec)
# of grid points (after weights+screening)   ... 127290 (   0.7 sec)
nearest neighbour list constructed           ...    0.0 sec
Grid point re-assignment to atoms done       ...    0.0 sec
Grid point division into batches done        ...    0.4 sec
Reduced shell lists constructed in    1.4 sec

Total number of grid points                  ...   127290
Total number of batches                      ...     2002
Average number of points per batch           ...       63
Average number of grid points per atom       ...     4389
Average number of shells per batch           ...    69.17 (51.24%)
Average number of basis functions per batch  ...   140.29 (48.54%)
Average number of large shells per batch     ...    47.65 (68.88%)
Average number of large basis fcns per batch ...    96.30 (68.64%)
Maximum spatial batch extension              ...  18.59, 18.74, 19.38 au
Average spatial batch extension              ...   2.23,  2.34,  2.36 au

Final grid set up in    2.1 sec
Final integration                            ... done (   2.2 sec)
Change in XC energy                          ...     0.000028886
Integrated number of electrons               ...   115.999993455
Previous integrated no of electrons          ...   115.997078258

----------------
TOTAL SCF ENERGY
----------------

Total Energy       :         -740.97898761 Eh          -20163.06332 eV

Components:
Nuclear Repulsion  :         1076.07483901 Eh           29281.48501 eV
Electronic Energy  :        -1817.05382662 Eh          -49444.54833 eV
One Electron Energy:        -3141.90200070 Eh          -85495.49995 eV
Two Electron Energy:         1324.84817408 Eh           36050.95161 eV

Virial components:
Potential Energy   :        -1474.87299352 Eh          -40133.33449 eV
Kinetic Energy     :          733.89400590 Eh           19970.27117 eV
Virial Ratio       :            2.00965396


DFT components:
N(Alpha)           :       57.999996727609 electrons
N(Beta)            :       57.999996727609 electrons
N(Total)           :      115.999993455217 electrons
E(XC)              :      -70.739062389015 Eh       
DFET-embed. en.    :        0.000000000000 Eh       

---------------
SCF CONVERGENCE
---------------

  Last Energy change         ...    3.3015e-10  Tolerance :   1.0000e-08
  Last MAX-Density change    ...    2.8724e-06  Tolerance :   1.0000e-07
  Last RMS-Density change    ...    8.2888e-08  Tolerance :   5.0000e-09
  Last Orbital Gradient      ...    8.5676e-07  Tolerance :   1.0000e-05
  Last Orbital Rotation      ...    2.5489e-06  Tolerance :   1.0000e-05

             **** THE GBW FILE WAS UPDATED (043969333.gbw) ****
             **** DENSITY FILE WAS UPDATED (043969333.scfp) ****
             **** ENERGY FILE WAS UPDATED (043969333.en.tmp) ****
             **** THE GBW FILE WAS UPDATED (043969333.gbw) ****
             **** DENSITY FILE WAS UPDATED (043969333.scfp) ****
----------------
ORBITAL ENERGIES
----------------

  NO   OCC          E(Eh)            E(eV) 
   0   2.0000     -19.280088      -524.6379 
   1   2.0000     -19.217175      -522.9259 
   2   2.0000     -14.482023      -394.0759 
   3   2.0000     -14.462204      -393.5366 
   4   2.0000     -14.382609      -391.3707 
   5   2.0000     -10.411830      -283.3203 
   6   2.0000     -10.400408      -283.0095 
   7   2.0000     -10.350863      -281.6613 
   8   2.0000     -10.342123      -281.4235 
   9   2.0000     -10.341782      -281.4142 
  10   2.0000     -10.308437      -280.5068 
  11   2.0000     -10.297179      -280.2005 
  12   2.0000     -10.296065      -280.1702 
  13   2.0000     -10.292931      -280.0849 
  14   2.0000     -10.289433      -279.9897 
  15   2.0000     -10.287206      -279.9291 
  16   2.0000      -1.196472       -32.5577 
  17   2.0000      -1.163751       -31.6673 
  18   2.0000      -1.090709       -29.6797 
  19   2.0000      -1.058305       -28.7979 
  20   2.0000      -0.986212       -26.8362 
  21   2.0000      -0.971128       -26.4257 
  22   2.0000      -0.915057       -24.9000 
  23   2.0000      -0.867039       -23.5933 
  24   2.0000      -0.850818       -23.1519 
  25   2.0000      -0.841743       -22.9050 
  26   2.0000      -0.759014       -20.6538 
  27   2.0000      -0.748671       -20.3724 
  28   2.0000      -0.746465       -20.3123 
  29   2.0000      -0.708182       -19.2706 
  30   2.0000      -0.672945       -18.3118 
  31   2.0000      -0.656701       -17.8697 
  32   2.0000      -0.632384       -17.2080 
  33   2.0000      -0.622216       -16.9314 
  34   2.0000      -0.601255       -16.3610 
  35   2.0000      -0.596464       -16.2306 
  36   2.0000      -0.584107       -15.8944 
  37   2.0000      -0.575490       -15.6599 
  38   2.0000      -0.558588       -15.2000 
  39   2.0000      -0.551011       -14.9938 
  40   2.0000      -0.535380       -14.5684 
  41   2.0000      -0.534096       -14.5335 
  42   2.0000      -0.523933       -14.2569 
  43   2.0000      -0.519282       -14.1304 
  44   2.0000      -0.509680       -13.8691 
  45   2.0000      -0.498602       -13.5677 
  46   2.0000      -0.486632       -13.2419 
  47   2.0000      -0.476686       -12.9713 
  48   2.0000      -0.466959       -12.7066 
  49   2.0000      -0.457299       -12.4437 
  50   2.0000      -0.445516       -12.1231 
  51   2.0000      -0.403893       -10.9905 
  52   2.0000      -0.395618       -10.7653 
  53   2.0000      -0.365431        -9.9439 
  54   2.0000      -0.355899        -9.6845 
  55   2.0000      -0.345724        -9.4076 
  56   2.0000      -0.328130        -8.9289 
  57   2.0000      -0.311850        -8.4859 
  58   0.0000       0.054220         1.4754 
  59   0.0000       0.066325         1.8048 
  60   0.0000       0.114534         3.1166 
  61   0.0000       0.126275         3.4361 
  62   0.0000       0.140800         3.8314 
  63   0.0000       0.146364         3.9828 
  64   0.0000       0.152358         4.1459 
  65   0.0000       0.166434         4.5289 
  66   0.0000       0.176371         4.7993 
  67   0.0000       0.190028         5.1709 
  68   0.0000       0.198077         5.3899 
  69   0.0000       0.206866         5.6291 
  70   0.0000       0.217006         5.9050 
  71   0.0000       0.219273         5.9667 
  72   0.0000       0.223164         6.0726 
  73   0.0000       0.234480         6.3805 
  74   0.0000       0.253806         6.9064 
  75   0.0000       0.257493         7.0067 
  76   0.0000       0.263788         7.1780 
  77   0.0000       0.274010         7.4562 
  78   0.0000       0.288291         7.8448 
  79   0.0000       0.299813         8.1583 
  80   0.0000       0.328789         8.9468 
  81   0.0000       0.340240         9.2584 
  82   0.0000       0.352138         9.5821 
  83   0.0000       0.362200         9.8560 
  84   0.0000       0.380634        10.3576 
  85   0.0000       0.384815        10.4714 
  86   0.0000       0.394625        10.7383 
  87   0.0000       0.411668        11.2021 
  88   0.0000       0.415985        11.3195 
  89   0.0000       0.439986        11.9726 
  90   0.0000       0.465170        12.6579 
  91   0.0000       0.490007        13.3338 
  92   0.0000       0.496532        13.5113 
  93   0.0000       0.499262        13.5856 
  94   0.0000       0.519972        14.1492 
  95   0.0000       0.526225        14.3193 
  96   0.0000       0.538700        14.6588 
  97   0.0000       0.541919        14.7464 
  98   0.0000       0.546254        14.8643 
  99   0.0000       0.565178        15.3793 
 100   0.0000       0.571624        15.5547 
 101   0.0000       0.588734        16.0203 
 102   0.0000       0.589855        16.0508 
 103   0.0000       0.596814        16.2401 
 104   0.0000       0.604817        16.4579 
 105   0.0000       0.615514        16.7490 
 106   0.0000       0.627490        17.0749 
 107   0.0000       0.643406        17.5080 
 108   0.0000       0.650666        17.7055 
 109   0.0000       0.656148        17.8547 
 110   0.0000       0.664590        18.0844 
 111   0.0000       0.678333        18.4584 
 112   0.0000       0.686159        18.6713 
 113   0.0000       0.704414        19.1681 
 114   0.0000       0.714113        19.4320 
 115   0.0000       0.723969        19.7002 
 116   0.0000       0.728529        19.8243 
 117   0.0000       0.731768        19.9124 
 118   0.0000       0.733916        19.9709 
 119   0.0000       0.745488        20.2858 
 120   0.0000       0.747619        20.3438 
 121   0.0000       0.753214        20.4960 
 122   0.0000       0.755902        20.5691 
 123   0.0000       0.766410        20.8551 
 124   0.0000       0.771266        20.9872 
 125   0.0000       0.782184        21.2843 
 126   0.0000       0.786220        21.3941 
 127   0.0000       0.787670        21.4336 
 128   0.0000       0.796573        21.6758 
 129   0.0000       0.810449        22.0534 
 130   0.0000       0.813089        22.1253 
 131   0.0000       0.822831        22.3904 
 132   0.0000       0.836328        22.7576 
 133   0.0000       0.842775        22.9331 
 134   0.0000       0.849219        23.1084 
 135   0.0000       0.853444        23.2234 
 136   0.0000       0.884880        24.0788 
 137   0.0000       0.909051        24.7365 
 138   0.0000       0.927883        25.2490 
 139   0.0000       0.934532        25.4299 
 140   0.0000       0.952967        25.9316 
 141   0.0000       0.958614        26.0852 
 142   0.0000       0.962833        26.2000 
 143   0.0000       0.974062        26.5056 
 144   0.0000       1.002372        27.2759 
 145   0.0000       1.031955        28.0809 
 146   0.0000       1.040529        28.3142 
 147   0.0000       1.062574        28.9141 
 148   0.0000       1.085070        29.5263 
 149   0.0000       1.100317        29.9412 
 150   0.0000       1.114674        30.3318 
 151   0.0000       1.138469        30.9793 
 152   0.0000       1.143303        31.1109 
 153   0.0000       1.169081        31.8123 
 154   0.0000       1.187355        32.3096 
 155   0.0000       1.210461        32.9383 
 156   0.0000       1.216537        33.1036 
 157   0.0000       1.254299        34.1312 
 158   0.0000       1.265224        34.4285 
 159   0.0000       1.284315        34.9480 
 160   0.0000       1.297505        35.3069 
 161   0.0000       1.310067        35.6487 
 162   0.0000       1.325987        36.0819 
 163   0.0000       1.355400        36.8823 
 164   0.0000       1.362314        37.0704 
 165   0.0000       1.370000        37.2796 
 166   0.0000       1.378817        37.5195 
 167   0.0000       1.388939        37.7949 
 168   0.0000       1.399178        38.0736 
 169   0.0000       1.404980        38.2315 
 170   0.0000       1.421228        38.6736 
 171   0.0000       1.456717        39.6393 
 172   0.0000       1.461572        39.7714 
 173   0.0000       1.473411        40.0936 
 174   0.0000       1.483136        40.3582 
 175   0.0000       1.521864        41.4120 
 176   0.0000       1.551125        42.2082 
 177   0.0000       1.584144        43.1067 
 178   0.0000       1.590983        43.2929 
 179   0.0000       1.610588        43.8263 
 180   0.0000       1.634283        44.4711 
 181   0.0000       1.666132        45.3377 
 182   0.0000       1.700306        46.2677 
 183   0.0000       1.706777        46.4438 
 184   0.0000       1.722429        46.8697 
 185   0.0000       1.747833        47.5610 
 186   0.0000       1.764269        48.0082 
 187   0.0000       1.780770        48.4572 
 188   0.0000       1.782051        48.4921 
 189   0.0000       1.783932        48.5433 
 190   0.0000       1.799949        48.9791 
 191   0.0000       1.811084        49.2821 
 192   0.0000       1.827261        49.7223 
 193   0.0000       1.832691        49.8701 
 194   0.0000       1.850446        50.3532 
 195   0.0000       1.851328        50.3772 
 196   0.0000       1.862783        50.6889 
 197   0.0000       1.868976        50.8574 
 198   0.0000       1.880892        51.1817 
 199   0.0000       1.884743        51.2865 
 200   0.0000       1.893140        51.5150 
 201   0.0000       1.901587        51.7448 
 202   0.0000       1.921933        52.2985 
 203   0.0000       1.935466        52.6667 
 204   0.0000       1.949288        53.0428 
 205   0.0000       1.967073        53.5268 
 206   0.0000       1.980566        53.8940 
 207   0.0000       1.981436        53.9176 
 208   0.0000       2.000156        54.4270 
 209   0.0000       2.028902        55.2092 
 210   0.0000       2.037473        55.4425 
 211   0.0000       2.044579        55.6358 
 212   0.0000       2.060044        56.0566 
 213   0.0000       2.068379        56.2835 
 214   0.0000       2.078173        56.5500 
 215   0.0000       2.092835        56.9489 
 216   0.0000       2.099847        57.1398 
 217   0.0000       2.105417        57.2913 
 218   0.0000       2.120732        57.7080 
 219   0.0000       2.147224        58.4289 
 220   0.0000       2.171784        59.0972 
 221   0.0000       2.185742        59.4771 
 222   0.0000       2.199266        59.8451 
 223   0.0000       2.219386        60.3926 
 224   0.0000       2.244738        61.0824 
 225   0.0000       2.251383        61.2633 
 226   0.0000       2.264038        61.6076 
 227   0.0000       2.293056        62.3972 
 228   0.0000       2.297751        62.5250 
 229   0.0000       2.311994        62.9126 
 230   0.0000       2.334542        63.5261 
 231   0.0000       2.346273        63.8453 
 232   0.0000       2.352452        64.0135 
 233   0.0000       2.384712        64.8913 
 234   0.0000       2.397156        65.2299 
 235   0.0000       2.412746        65.6542 
 236   0.0000       2.432561        66.1934 
 237   0.0000       2.435737        66.2798 
 238   0.0000       2.459020        66.9133 
 239   0.0000       2.471250        67.2461 
 240   0.0000       2.472977        67.2931 
 241   0.0000       2.507286        68.2267 
 242   0.0000       2.527323        68.7720 
 243   0.0000       2.567871        69.8753 
 244   0.0000       2.588038        70.4241 
 245   0.0000       2.601363        70.7867 
 246   0.0000       2.618834        71.2621 
 247   0.0000       2.662908        72.4614 
 248   0.0000       2.677687        72.8636 
 249   0.0000       2.712086        73.7996 
 250   0.0000       2.725702        74.1701 
 251   0.0000       2.742210        74.6193 
 252   0.0000       2.753844        74.9359 
 253   0.0000       2.776276        75.5463 
 254   0.0000       2.792178        75.9790 
 255   0.0000       2.812796        76.5401 
 256   0.0000       2.826205        76.9049 
 257   0.0000       2.849671        77.5435 
 258   0.0000       2.852901        77.6314 
 259   0.0000       2.864777        77.9545 
 260   0.0000       2.891891        78.6923 
 261   0.0000       2.896363        78.8140 
 262   0.0000       2.928455        79.6873 
 263   0.0000       2.940003        80.0016 
 264   0.0000       2.969472        80.8034 
 265   0.0000       2.987456        81.2928 
 266   0.0000       2.995561        81.5134 
 267   0.0000       3.010882        81.9303 
 268   0.0000       3.029302        82.4315 
 269   0.0000       3.046918        82.9109 
 270   0.0000       3.075654        83.6928 
 271   0.0000       3.096018        84.2469 
 272   0.0000       3.113111        84.7121 
 273   0.0000       3.128286        85.1250 
 274   0.0000       3.166439        86.1632 
 275   0.0000       3.213748        87.4505 
 276   0.0000       3.229894        87.8899 
 277   0.0000       3.266054        88.8738 
 278   0.0000       3.286225        89.4227 
 279   0.0000       3.322064        90.3980 
 280   0.0000       3.342059        90.9420 
 281   0.0000       3.392559        92.3162 
 282   0.0000       3.416595        92.9703 
 283   0.0000       3.547350        96.5283 
 284   0.0000       3.651990        99.3757 
 285   0.0000       3.724061       101.3369 
 286   0.0000       3.763981       102.4231 
 287   0.0000       3.822147       104.0059 
 288   0.0000       3.916609       106.5763 

                    ********************************
                    * MULLIKEN POPULATION ANALYSIS *
                    ********************************

-----------------------
MULLIKEN ATOMIC CHARGES
-----------------------
   0 C :   -0.005304
   1 C :   -0.010801
   2 C :   -0.044836
   3 C :    0.172974
   4 C :   -0.079242
   5 C :   -0.005003
   6 H :    0.014815
   7 H :    0.004371
   8 N :   -0.330250
   9 C :    0.128540
  10 O :   -0.239743
  11 C :    0.031090
  12 H :    0.061894
  13 H :    0.073738
  14 C :   -0.065127
  15 N :   -0.206135
  16 C :    0.083793
  17 N :   -0.205594
  18 H :    0.095679
  19 O :   -0.224182
  20 H :    0.201957
  21 H :    0.136306
  22 H :    0.057318
  23 C :    0.194543
  24 H :    0.049928
  25 H :    0.049638
  26 H :    0.028506
  27 H :    0.018279
  28 H :    0.012846
Sum of atomic charges:   -0.0000000

--------------------------------
MULLIKEN REDUCED ORBITAL CHARGES
--------------------------------
  0 C s       :     3.141966  s :     3.141966
      pz      :     0.978677  p :     2.827671
      px      :     0.891761
      py      :     0.957232
      dz2     :     0.007306  d :     0.035667
      dxz     :     0.006050
      dyz     :     0.006527
      dx2y2   :     0.007573
      dxy     :     0.008211
  1 C s       :     3.144179  s :     3.144179
      pz      :     0.935909  p :     2.830094
      px      :     0.940266
      py      :     0.953919
      dz2     :     0.004882  d :     0.036527
      dxz     :     0.007809
      dyz     :     0.005913
      dx2y2   :     0.009097
      dxy     :     0.008826
  2 C s       :     3.234129  s :     3.234129
      pz      :     0.945893  p :     2.776994
      px      :     0.929829
      py      :     0.901273
      dz2     :     0.005595  d :     0.033712
      dxz     :     0.007876
      dyz     :     0.004933
      dx2y2   :     0.007263
      dxy     :     0.008045
  3 C s       :     2.954966  s :     2.954966
      pz      :     0.955315  p :     2.813702
      px      :     0.876911
      py      :     0.981477
      dz2     :     0.010247  d :     0.058358
      dxz     :     0.012636
      dyz     :     0.009013
      dx2y2   :     0.013596
      dxy     :     0.012866
  4 C s       :     3.220274  s :     3.220274
      pz      :     0.929280  p :     2.825067
      px      :     0.912584
      py      :     0.983203
      dz2     :     0.004366  d :     0.033902
      dxz     :     0.007761
      dyz     :     0.005576
      dx2y2   :     0.008531
      dxy     :     0.007668
  5 C s       :     3.139464  s :     3.139464
      pz      :     0.950937  p :     2.829005
      px      :     0.958806
      py      :     0.919263
      dz2     :     0.005887  d :     0.036534
      dxz     :     0.007822
      dyz     :     0.005948
      dx2y2   :     0.008768
      dxy     :     0.008109
  6 H s       :     0.961970  s :     0.961970
      pz      :     0.007113  p :     0.023215
      px      :     0.004463
      py      :     0.011639
  7 H s       :     0.971913  s :     0.971913
      pz      :     0.010003  p :     0.023716
      px      :     0.007855
      py      :     0.005858
  8 N s       :     3.408127  s :     3.408127
      pz      :     1.536838  p :     3.895222
      px      :     1.191818
      py      :     1.166566
      dz2     :     0.003432  d :     0.026900
      dxz     :     0.004285
      dyz     :     0.003835
      dx2y2   :     0.008000
      dxy     :     0.007349
  9 C s       :     3.079483  s :     3.079483
      pz      :     0.837042  p :     2.669046
      px      :     0.974998
      py      :     0.857006
      dz2     :     0.015473  d :     0.122931
      dxz     :     0.014500
      dyz     :     0.024248
      dx2y2   :     0.045190
      dxy     :     0.023519
 10 O s       :     3.726544  s :     3.726544
      pz      :     1.397183  p :     4.494540
      px      :     1.578836
      py      :     1.518521
      dz2     :     0.003121  d :     0.018659
      dxz     :     0.002734
      dyz     :     0.004209
      dx2y2   :     0.003417
      dxy     :     0.005178
 11 C s       :     2.979230  s :     2.979230
      pz      :     1.041188  p :     2.959014
      px      :     0.964821
      py      :     0.953006
      dz2     :     0.005126  d :     0.030666
      dxz     :     0.005050
      dyz     :     0.006280
      dx2y2   :     0.008576
      dxy     :     0.005634
 12 H s       :     0.915024  s :     0.915024
      pz      :     0.009161  p :     0.023082
      px      :     0.006909
      py      :     0.007013
 13 H s       :     0.902719  s :     0.902719
      pz      :     0.012309  p :     0.023543
      px      :     0.004642
      py      :     0.006591
 14 C s       :     3.111521  s :     3.111521
      pz      :     0.936407  p :     2.896024
      px      :     0.981594
      py      :     0.978024
      dz2     :     0.011018  d :     0.057582
      dxz     :     0.015403
      dyz     :     0.010243
      dx2y2   :     0.010073
      dxy     :     0.010846
 15 N s       :     3.341099  s :     3.341099
      pz      :     1.081623  p :     3.845181
      px      :     1.314896
      py      :     1.448662
      dz2     :     0.005244  d :     0.019854
      dxz     :     0.005390
      dyz     :     0.002173
      dx2y2   :     0.003299
      dxy     :     0.003747
 16 C s       :     3.051936  s :     3.051936
      pz      :     0.898485  p :     2.733766
      px      :     0.923055
      py      :     0.912227
      dz2     :     0.035121  d :     0.130504
      dxz     :     0.029991
      dyz     :     0.028112
      dx2y2   :     0.022405
      dxy     :     0.014875
 17 N s       :     3.442311  s :     3.442311
      pz      :     0.940752  p :     3.740593
      px      :     1.399286
      py      :     1.400556
      dz2     :     0.001996  d :     0.022689
      dxz     :     0.006904
      dyz     :     0.006597
      dx2y2   :     0.003926
      dxy     :     0.003267
 18 H s       :     0.858111  s :     0.858111
      pz      :     0.021312  p :     0.046210
      px      :     0.012595
      py      :     0.012303
 19 O s       :     3.676123  s :     3.676123
      pz      :     1.472546  p :     4.534777
      px      :     1.496127
      py      :     1.566105
      dz2     :     0.005000  d :     0.013282
      dxz     :     0.003163
      dyz     :     0.002902
      dx2y2   :     0.000285
      dxy     :     0.001932
 20 H s       :     0.730390  s :     0.730390
      pz      :     0.013330  p :     0.067653
      px      :     0.028216
      py      :     0.026108
 21 H s       :     0.819852  s :     0.819852
      pz      :     0.019472  p :     0.043843
      px      :     0.013083
      py      :     0.011288
 22 H s       :     0.921010  s :     0.921010
      pz      :     0.009038  p :     0.021672
      px      :     0.009109
      py      :     0.003525
 23 C s       :     2.969622  s :     2.969622
      pz      :     0.953619  p :     2.788280
      px      :     0.867243
      py      :     0.967417
      dz2     :     0.013115  d :     0.047555
      dxz     :     0.008687
      dyz     :     0.006117
      dx2y2   :     0.008833
      dxy     :     0.010803
 24 H s       :     0.928464  s :     0.928464
      pz      :     0.005450  p :     0.021609
      px      :     0.002791
      py      :     0.013367
 25 H s       :     0.928877  s :     0.928877
      pz      :     0.014329  p :     0.021486
      px      :     0.003273
      py      :     0.003884
 26 H s       :     0.945967  s :     0.945967
      pz      :     0.006561  p :     0.025527
      px      :     0.004868
      py      :     0.014098
 27 H s       :     0.958572  s :     0.958572
      pz      :     0.009531  p :     0.023148
      px      :     0.007992
      py      :     0.005625
 28 H s       :     0.963864  s :     0.963864
      pz      :     0.004411  p :     0.023289
      px      :     0.012926
      py      :     0.005952


                     *******************************
                     * LOEWDIN POPULATION ANALYSIS *
                     *******************************

----------------------
LOEWDIN ATOMIC CHARGES
----------------------
   0 C :   -0.040165
   1 C :   -0.018140
   2 C :   -0.034175
   3 C :    0.027654
   4 C :   -0.055978
   5 C :   -0.021461
   6 H :    0.031780
   7 H :    0.028765
   8 N :   -0.036760
   9 C :    0.070348
  10 O :   -0.197148
  11 C :   -0.053477
  12 H :    0.043796
  13 H :    0.054004
  14 C :    0.026468
  15 N :   -0.046679
  16 C :    0.070512
  17 N :   -0.247292
  18 H :    0.049272
  19 O :   -0.062292
  20 H :    0.102294
  21 H :    0.079918
  22 H :    0.034834
  23 C :    0.041830
  24 H :    0.030130
  25 H :    0.023840
  26 H :    0.035589
  27 H :    0.032920
  28 H :    0.029613

-------------------------------
LOEWDIN REDUCED ORBITAL CHARGES
-------------------------------
  0 C s       :     2.849845  s :     2.849845
      pz      :     1.027622  p :     3.097149
      px      :     1.033019
      py      :     1.036508
      dz2     :     0.016982  d :     0.093172
      dxz     :     0.016372
      dyz     :     0.018169
      dx2y2   :     0.019872
      dxy     :     0.021778
  1 C s       :     2.850024  s :     2.850024
      pz      :     1.002253  p :     3.073372
      px      :     1.042093
      py      :     1.029026
      dz2     :     0.011605  d :     0.094744
      dxz     :     0.019655
      dyz     :     0.015597
      dx2y2   :     0.023422
      dxy     :     0.024465
  2 C s       :     2.851355  s :     2.851355
      pz      :     1.010250  p :     3.093280
      px      :     1.047791
      py      :     1.035239
      dz2     :     0.013222  d :     0.089540
      dxz     :     0.021585
      dyz     :     0.013031
      dx2y2   :     0.020005
      dxy     :     0.021697
  3 C s       :     2.823110  s :     2.823110
      pz      :     1.034216  p :     3.005059
      px      :     0.942534
      py      :     1.028309
      dz2     :     0.023179  d :     0.144177
      dxz     :     0.031223
      dyz     :     0.022731
      dx2y2   :     0.034259
      dxy     :     0.032785
  4 C s       :     2.848757  s :     2.848757
      pz      :     1.021632  p :     3.116781
      px      :     1.052895
      py      :     1.042254
      dz2     :     0.010723  d :     0.090439
      dxz     :     0.019907
      dyz     :     0.015115
      dx2y2   :     0.022439
      dxy     :     0.022256
  5 C s       :     2.848913  s :     2.848913
      pz      :     1.012908  p :     3.077899
      px      :     1.048429
      py      :     1.016562
      dz2     :     0.013689  d :     0.094649
      dxz     :     0.021087
      dyz     :     0.015113
      dx2y2   :     0.023019
      dxy     :     0.021741
  6 H s       :     0.899725  s :     0.899725
      pz      :     0.021278  p :     0.068496
      px      :     0.014239
      py      :     0.032979
  7 H s       :     0.899662  s :     0.899662
      pz      :     0.029386  p :     0.071573
      px      :     0.023433
      py      :     0.018755
  8 N s       :     3.056973  s :     3.056973
      pz      :     1.480420  p :     3.913124
      px      :     1.210863
      py      :     1.221841
      dz2     :     0.006997  d :     0.066664
      dxz     :     0.009491
      dyz     :     0.008438
      dx2y2   :     0.021082
      dxy     :     0.020655
  9 C s       :     2.836080  s :     2.836080
      pz      :     0.860177  p :     2.814940
      px      :     1.001160
      py      :     0.953604
      dz2     :     0.030541  d :     0.278633
      dxz     :     0.030908
      dyz     :     0.053284
      dx2y2   :     0.109769
      dxy     :     0.054131
 10 O s       :     3.535043  s :     3.535043
      pz      :     1.424866  p :     4.630447
      px      :     1.624562
      py      :     1.581019
      dz2     :     0.004157  d :     0.031658
      dxz     :     0.004863
      dyz     :     0.007288
      dx2y2   :     0.005501
      dxy     :     0.009848
 11 C s       :     2.841787  s :     2.841787
      pz      :     1.078256  p :     3.128912
      px      :     1.029241
      py      :     1.021415
      dz2     :     0.013486  d :     0.082777
      dxz     :     0.013451
      dyz     :     0.016967
      dx2y2   :     0.023785
      dxy     :     0.015089
 12 H s       :     0.886658  s :     0.886658
      pz      :     0.025670  p :     0.069546
      px      :     0.021104
      py      :     0.022772
 13 H s       :     0.875738  s :     0.875738
      pz      :     0.035035  p :     0.070259
      px      :     0.014876
      py      :     0.020347
 14 C s       :     2.829217  s :     2.829217
      pz      :     0.967408  p :     3.008831
      px      :     1.018060
      py      :     1.023363
      dz2     :     0.024600  d :     0.135484
      dxz     :     0.038493
      dyz     :     0.021454
      dx2y2   :     0.023421
      dxy     :     0.027515
 15 N s       :     3.046139  s :     3.046139
      pz      :     1.158257  p :     3.948419
      px      :     1.344998
      py      :     1.445164
      dz2     :     0.014054  d :     0.052121
      dxz     :     0.015407
      dyz     :     0.006846
      dx2y2   :     0.006319
      dxy     :     0.009494
 16 C s       :     2.812904  s :     2.812904
      pz      :     0.964960  p :     2.834295
      px      :     0.932396
      py      :     0.936939
      dz2     :     0.079480  d :     0.282288
      dxz     :     0.064089
      dyz     :     0.060915
      dx2y2   :     0.044333
      dxy     :     0.033471
 17 N s       :     3.220818  s :     3.220818
      pz      :     1.109022  p :     3.979786
      px      :     1.436406
      py      :     1.434358
      dz2     :     0.008019  d :     0.046688
      dxz     :     0.015277
      dyz     :     0.014824
      dx2y2   :     0.003949
      dxy     :     0.004619
 18 H s       :     0.823230  s :     0.823230
      pz      :     0.052155  p :     0.127498
      px      :     0.038472
      py      :     0.036871
 19 O s       :     3.410866  s :     3.410866
      pz      :     1.526448  p :     4.625583
      px      :     1.520990
      py      :     1.578145
      dz2     :     0.009330  d :     0.025842
      dxz     :     0.005652
      dyz     :     0.004804
      dx2y2   :     0.000499
      dxy     :     0.005557
 20 H s       :     0.721746  s :     0.721746
      pz      :     0.036088  p :     0.175960
      px      :     0.072099
      py      :     0.067773
 21 H s       :     0.793046  s :     0.793046
      pz      :     0.053965  p :     0.127036
      px      :     0.038993
      py      :     0.034078
 22 H s       :     0.895444  s :     0.895444
      pz      :     0.027455  p :     0.069722
      px      :     0.028033
      py      :     0.014234
 23 C s       :     2.836408  s :     2.836408
      pz      :     1.038385  p :     3.005584
      px      :     0.946084
      py      :     1.021116
      dz2     :     0.033910  d :     0.116178
      dxz     :     0.019771
      dyz     :     0.014226
      dx2y2   :     0.020863
      dxy     :     0.027408
 24 H s       :     0.902637  s :     0.902637
      pz      :     0.015662  p :     0.067233
      px      :     0.011441
      py      :     0.040130
 25 H s       :     0.908915  s :     0.908915
      pz      :     0.042251  p :     0.067246
      px      :     0.012527
      py      :     0.012467
 26 H s       :     0.886812  s :     0.886812
      pz      :     0.021569  p :     0.077600
      px      :     0.016552
      py      :     0.039479
 27 H s       :     0.898595  s :     0.898595
      pz      :     0.027642  p :     0.068485
      px      :     0.023455
      py      :     0.017388
 28 H s       :     0.901102  s :     0.901102
      pz      :     0.014403  p :     0.069285
      px      :     0.036352
      py      :     0.018530


                      *****************************
                      * MAYER POPULATION ANALYSIS *
                      *****************************

  NA   - Mulliken gross atomic population
  ZA   - Total nuclear charge
  QA   - Mulliken gross atomic charge
  VA   - Mayer's total valence
  BVA  - Mayer's bonded valence
  FA   - Mayer's free valence

  ATOM       NA         ZA         QA         VA         BVA        FA
  0 C      6.0053     6.0000    -0.0053     3.8429     3.8429    -0.0000
  1 C      6.0108     6.0000    -0.0108     3.8676     3.8676    -0.0000
  2 C      6.0448     6.0000    -0.0448     3.8904     3.8904     0.0000
  3 C      5.8270     6.0000     0.1730     3.8590     3.8590     0.0000
  4 C      6.0792     6.0000    -0.0792     3.8908     3.8908    -0.0000
  5 C      6.0050     6.0000    -0.0050     3.8799     3.8799    -0.0000
  6 H      0.9852     1.0000     0.0148     0.9845     0.9845    -0.0000
  7 H      0.9956     1.0000     0.0044     0.9936     0.9936    -0.0000
  8 N      7.3302     7.0000    -0.3302     3.1333     3.1333    -0.0000
  9 C      5.8715     6.0000     0.1285     4.2555     4.2555    -0.0000
 10 O      8.2397     8.0000    -0.2397     2.2858     2.2858    -0.0000
 11 C      5.9689     6.0000     0.0311     3.8437     3.8437    -0.0000
 12 H      0.9381     1.0000     0.0619     1.0145     1.0145    -0.0000
 13 H      0.9263     1.0000     0.0737     0.9924     0.9924    -0.0000
 14 C      6.0651     6.0000    -0.0651     4.0893     4.0893     0.0000
 15 N      7.2061     7.0000    -0.2061     3.0862     3.0862     0.0000
 16 C      5.9162     6.0000     0.0838     4.3828     4.3828     0.0000
 17 N      7.2056     7.0000    -0.2056     3.0093     3.0093    -0.0000
 18 H      0.9043     1.0000     0.0957     1.0100     1.0100    -0.0000
 19 O      8.2242     8.0000    -0.2242     2.1987     2.1987    -0.0000
 20 H      0.7980     1.0000     0.2020     1.0201     1.0201     0.0000
 21 H      0.8637     1.0000     0.1363     1.0021     1.0021    -0.0000
 22 H      0.9427     1.0000     0.0573     1.0116     1.0116    -0.0000
 23 C      5.8055     6.0000     0.1945     3.8226     3.8226    -0.0000
 24 H      0.9501     1.0000     0.0499     1.0020     1.0020     0.0000
 25 H      0.9504     1.0000     0.0496     0.9768     0.9768    -0.0000
 26 H      0.9715     1.0000     0.0285     1.0356     1.0356    -0.0000
 27 H      0.9817     1.0000     0.0183     0.9848     0.9848    -0.0000
 28 H      0.9872     1.0000     0.0128     0.9846     0.9846    -0.0000

  Mayer bond orders larger than 0.100000
B(  0-C ,  1-C ) :   1.3829 B(  0-C ,  5-C ) :   1.4011 B(  0-C , 28-H ) :   0.9953 
B(  1-C ,  2-C ) :   1.3984 B(  1-C , 27-H ) :   0.9903 B(  2-C ,  3-C ) :   1.3954 
B(  2-C , 26-H ) :   0.9885 B(  3-C ,  4-C ) :   1.3744 B(  3-C ,  8-N ) :   0.9715 
B(  4-C ,  5-C ) :   1.3910 B(  4-C ,  7-H ) :   0.9923 B(  5-C ,  6-H ) :   0.9883 
B(  8-N ,  9-C ) :   1.1150 B(  8-N , 23-C ) :   0.9280 B(  9-C , 10-O ) :   2.0897 
B(  9-C , 11-C ) :   0.9621 B( 11-C , 12-H ) :   0.9427 B( 11-C , 13-H ) :   0.9262 
B( 11-C , 14-C ) :   1.0465 B( 14-C , 15-N ) :   0.9776 B( 14-C , 22-H ) :   0.9293 
B( 14-C , 23-C ) :   0.9959 B( 15-N , 16-C ) :   1.1351 B( 15-N , 21-H ) :   0.9323 
B( 16-C , 17-N ) :   1.9424 B( 16-C , 19-O ) :   1.1716 B( 17-N , 18-H ) :   0.9345 
B( 19-O , 20-H ) :   0.9447 B( 23-C , 24-H ) :   0.9505 B( 23-C , 25-H ) :   0.9467 


-------
TIMINGS
-------

Total SCF time: 0 days 0 hours 5 min 8 sec 

Total time                  ....     308.772 sec
Sum of individual times     ....     308.481 sec  ( 99.9%)

Fock matrix formation       ....     304.766 sec  ( 98.7%)
  XC integration            ....       9.983 sec  (  3.3% of F)
    Basis function eval.    ....       2.967 sec  ( 29.7% of XC)
    Density eval.           ....       1.957 sec  ( 19.6% of XC)
    XC-Functional eval.     ....       2.199 sec  ( 22.0% of XC)
    XC-Potential eval.      ....       2.595 sec  ( 26.0% of XC)
Diagonalization             ....       0.085 sec  (  0.0%)
Density matrix formation    ....       0.023 sec  (  0.0%)
Population analysis         ....       0.010 sec  (  0.0%)
Initial guess               ....       0.898 sec  (  0.3%)
Orbital Transformation      ....       0.000 sec  (  0.0%)
Orbital Orthonormalization  ....       0.000 sec  (  0.0%)
DIIS solution               ....       0.029 sec  (  0.0%)
SOSCF solution              ....       0.054 sec  (  0.0%)
Grid generation             ....       2.616 sec  (  0.8%)


-------------------------------------------------------------------------------
                          DFT DISPERSION CORRECTION                            
                                                                               
                              DFTD3 V3.1  Rev 1                                
                              USING zero damping                               
-------------------------------------------------------------------------------
The omegaB97X-D3 functional is recognized. Fit by Chai et al.
Active option DFTDOPT                   ...         3   

molecular C6(AA) [au] = 8952.351729 


            DFT-D V3
 parameters
 s6 scaling factor         :     1.0000 
 rs6 scaling factor        :     1.2810 
 s8 scaling factor         :     1.0000 
 rs8 scaling factor        :     1.0940 
 Damping factor alpha6     :    14.0000 
 Damping factor alpha8     :    16.0000 
 ad hoc parameters k1-k3   :    16.0000     1.3333    -4.0000 

 Edisp/kcal,au: -7.358390171900  -0.011726339906 
 E6   /kcal   :  -3.318596103 
 E8   /kcal   :  -4.039794069 
 % E8         :  54.900514580 

-------------------------   ----------------
Dispersion correction           -0.011726340
-------------------------   ----------------


-------------------------   --------------------
FINAL SINGLE POINT ENERGY      -740.990713953128
-------------------------   --------------------

------------------------------------------------------------------------------
                         ORCA SCF GRADIENT CALCULATION
------------------------------------------------------------------------------

Gradient of the Kohn-Sham DFT energy:
Kohn-Sham wavefunction type      ... RKS
Hartree-Fock exchange scaling    ...    0.196
Number of operators              ...    1
Number of atoms                  ...   29
Basis set dimensions             ...  289
Integral neglect threshold       ... 2.5e-11
Integral primitive cutoff        ... 2.5e-12

Nuclear repulsion gradient       ... done
One Electron Gradient            ... done
Pre-screening matrix             ... done
Starting the two electron gradient:
Two electron gradient done
Exchange-correlation gradient    ... done
Dispersion correction            ... done

------------------
CARTESIAN GRADIENT
------------------

   1   C   :   -0.001113211    0.000869055   -0.000458930
   2   C   :    0.000767199    0.001693390   -0.001389093
   3   C   :   -0.000698906   -0.001731886    0.001942333
   4   C   :   -0.000703274   -0.001978183    0.000488876
   5   C   :    0.001387646   -0.001441582    0.000209935
   6   C   :   -0.000761497    0.000022238    0.000833051
   7   H   :   -0.002293942    0.007530398   -0.004790471
   8   H   :    0.005797571    0.003498065   -0.006280974
   9   N   :    0.002688660    0.010091042   -0.001618101
[...]
      dxy     :     0.006135
 12 H s       :     0.912577  s :     0.912577
      pz      :     0.008325  p :     0.022669
      px      :     0.006873
      py      :     0.007472
 13 H s       :     0.897149  s :     0.897149
      pz      :     0.012147  p :     0.023101
      px      :     0.004612
      py      :     0.006342
 14 C s       :     3.100533  s :     3.100533
      pz      :     0.936568  p :     2.881924
      px      :     0.970343
      py      :     0.975013
      dz2     :     0.011309  d :     0.057522
      dxz     :     0.016471
      dyz     :     0.009452
      dx2y2   :     0.009876
      dxy     :     0.010414
 15 N s       :     3.349862  s :     3.349862
      pz      :     1.075867  p :     3.852907
      px      :     1.474318
      py      :     1.302723
      dz2     :     0.005250  d :     0.019449
      dxz     :     0.004233
      dyz     :     0.003037
      dx2y2   :     0.003501
      dxy     :     0.003428
 16 C s       :     3.054038  s :     3.054038
      pz      :     0.893362  p :     2.725622
      px      :     0.922335
      py      :     0.909924
      dz2     :     0.035471  d :     0.129705
      dxz     :     0.025452
      dyz     :     0.032049
      dx2y2   :     0.020324
      dxy     :     0.016411
 17 N s       :     3.456448  s :     3.456448
      pz      :     0.953514  p :     3.723671
      px      :     1.375897
      py      :     1.394260
      dz2     :     0.001932  d :     0.023158
      dxz     :     0.004849
      dyz     :     0.008916
      dx2y2   :     0.004058
      dxy     :     0.003404
 18 H s       :     0.853927  s :     0.853927
      pz      :     0.020601  p :     0.045903
      px      :     0.011515
      py      :     0.013787
 19 O s       :     3.681633  s :     3.681633
      pz      :     1.466179  p :     4.527730
      px      :     1.661738
      py      :     1.399813
      dz2     :     0.005237  d :     0.013677
      dxz     :     0.002635
      dyz     :     0.003452
      dx2y2   :     0.000431
      dxy     :     0.001922
 20 H s       :     0.732339  s :     0.732339
      pz      :     0.013549  p :     0.067953
      px      :     0.023344
      py      :     0.031060
 21 H s       :     0.817000  s :     0.817000
      pz      :     0.019790  p :     0.043640
      px      :     0.012154
      py      :     0.011696
 22 H s       :     0.924679  s :     0.924679
      pz      :     0.009265  p :     0.020897
      px      :     0.008296
      py      :     0.003335
 23 C s       :     2.982440  s :     2.982440
      pz      :     0.936175  p :     2.788600
      px      :     0.864899
      py      :     0.987526
      dz2     :     0.013340  d :     0.047055
      dxz     :     0.009426
      dyz     :     0.005307
      dx2y2   :     0.008867
      dxy     :     0.010115
 24 H s       :     0.919909  s :     0.919909
      pz      :     0.004889  p :     0.021836
      px      :     0.003126
      py      :     0.013821
 25 H s       :     0.928486  s :     0.928486
      pz      :     0.013959  p :     0.021041
      px      :     0.003204
      py      :     0.003878
 26 H s       :     0.935561  s :     0.935561
      pz      :     0.006268  p :     0.025425
      px      :     0.004506
      py      :     0.014651
 27 H s       :     0.952003  s :     0.952003
      pz      :     0.008627  p :     0.022543
      px      :     0.008443
      py      :     0.005474
 28 H s       :     0.956861  s :     0.956861
      pz      :     0.004257  p :     0.022609
      px      :     0.012447
      py      :     0.005905


                     *******************************
                     * LOEWDIN POPULATION ANALYSIS *
                     *******************************

----------------------
LOEWDIN ATOMIC CHARGES
----------------------
   0 C :   -0.045471
   1 C :   -0.020374
   2 C :   -0.040909
   3 C :    0.032095
   4 C :   -0.061483
   5 C :   -0.023650
   6 H :    0.034066
   7 H :    0.030984
   8 N :   -0.044623
   9 C :    0.077034
  10 O :   -0.192420
  11 C :   -0.055436
  12 H :    0.043984
  13 H :    0.057599
  14 C :    0.027492
  15 N :   -0.055168
  16 C :    0.072263
  17 N :   -0.247237
  18 H :    0.053372
  19 O :   -0.060119
  20 H :    0.101347
  21 H :    0.080374
  22 H :    0.033585
  23 C :    0.040467
  24 H :    0.030922
  25 H :    0.025596
  26 H :    0.038184
  27 H :    0.035113
  28 H :    0.032413

-------------------------------
LOEWDIN REDUCED ORBITAL CHARGES
-------------------------------
  0 C s       :     2.857476  s :     2.857476
      pz      :     1.022707  p :     3.097665
      px      :     1.033926
      py      :     1.041032
      dz2     :     0.014797  d :     0.090331
      dxz     :     0.014728
      dyz     :     0.017104
      dx2y2   :     0.020779
      dxy     :     0.022923
  1 C s       :     2.858084  s :     2.858084
      pz      :     0.995396  p :     3.070397
      px      :     1.040437
      py      :     1.034564
      dz2     :     0.009957  d :     0.091892
      dxz     :     0.017637
      dyz     :     0.015356
      dx2y2   :     0.023869
      dxy     :     0.025073
  2 C s       :     2.859102  s :     2.859102
      pz      :     1.009015  p :     3.095311
      px      :     1.044641
      py      :     1.041655
      dz2     :     0.011348  d :     0.086496
      dxz     :     0.019973
      dyz     :     0.011651
      dx2y2   :     0.021153
      dxy     :     0.022370
  3 C s       :     2.829943  s :     2.829943
      pz      :     1.026372  p :     2.998299
      px      :     0.943180
      py      :     1.028747
      dz2     :     0.020508  d :     0.139663
      dxz     :     0.028008
      dyz     :     0.021720
      dx2y2   :     0.035361
      dxy     :     0.034066
  4 C s       :     2.855893  s :     2.855893
      pz      :     1.024555  p :     3.118081
      px      :     1.052057
      py      :     1.041469
      dz2     :     0.009290  d :     0.087509
      dxz     :     0.017562
      dyz     :     0.014836
      dx2y2   :     0.023252
      dxy     :     0.022570
  5 C s       :     2.856745  s :     2.856745
      pz      :     1.005207  p :     3.075016
      px      :     1.049647
      py      :     1.020161
      dz2     :     0.012062  d :     0.091889
      dxz     :     0.019599
      dyz     :     0.013835
      dx2y2   :     0.024263
      dxy     :     0.022131
  6 H s       :     0.899497  s :     0.899497
      pz      :     0.019916  p :     0.066437
      px      :     0.012612
      py      :     0.033909
  7 H s       :     0.898992  s :     0.898992
      pz      :     0.026944  p :     0.070024
      px      :     0.024936
      py      :     0.018144
  8 N s       :     3.066510  s :     3.066510
      pz      :     1.465680  p :     3.914190
      px      :     1.217521
      py      :     1.230989
      dz2     :     0.007175  d :     0.063923
      dxz     :     0.009890
      dyz     :     0.008144
      dx2y2   :     0.020064
      dxy     :     0.018649
  9 C s       :     2.840921  s :     2.840921
      pz      :     0.874296  p :     2.808115
      px      :     0.990121
      py      :     0.943698
      dz2     :     0.034806  d :     0.273931
      dxz     :     0.034882
      dyz     :     0.053018
      dx2y2   :     0.101687
      dxy     :     0.049537
 10 O s       :     3.535457  s :     3.535457
      pz      :     1.425162  p :     4.625371
      px      :     1.612476
      py      :     1.587733
      dz2     :     0.004383  d :     0.031592
      dxz     :     0.005541
      dyz     :     0.007849
      dx2y2   :     0.004987
      dxy     :     0.008832
 11 C s       :     2.845453  s :     2.845453
      pz      :     1.074699  p :     3.127246
      px      :     1.030820
      py      :     1.021727
      dz2     :     0.012513  d :     0.082737
      dxz     :     0.015065
      dyz     :     0.016710
      dx2y2   :     0.021865
      dxy     :     0.016584
 12 H s       :     0.888200  s :     0.888200
      pz      :     0.023282  p :     0.067816
      px      :     0.020849
      py      :     0.023685
 13 H s       :     0.874057  s :     0.874057
      pz      :     0.034555  p :     0.068344
      px      :     0.014435
      py      :     0.019355
 14 C s       :     2.830792  s :     2.830792
      pz      :     0.966926  p :     3.006452
      px      :     1.015414
      py      :     1.024112
      dz2     :     0.025633  d :     0.135264
      dxz     :     0.040742
      dyz     :     0.019978
      dx2y2   :     0.022304
      dxy     :     0.026608
 15 N s       :     3.052387  s :     3.052387
      pz      :     1.156263  p :     3.951822
      px      :     1.458534
      py      :     1.337025
      dz2     :     0.014016  d :     0.050959
      dxz     :     0.011215
      dyz     :     0.010122
      dx2y2   :     0.007405
      dxy     :     0.008202
 16 C s       :     2.816623  s :     2.816623
      pz      :     0.962043  p :     2.832167
      px      :     0.924338
      py      :     0.945786
      dz2     :     0.079828  d :     0.278946
      dxz     :     0.051732
      dyz     :     0.070772
      dx2y2   :     0.041059
      dxy     :     0.035554
 17 N s       :     3.234521  s :     3.234521
      pz      :     1.112745  p :     3.965816
      px      :     1.391012
      py      :     1.462059
      dz2     :     0.007373  d :     0.046900
      dxz     :     0.010770
      dyz     :     0.019698
      dx2y2   :     0.004369
      dxy     :     0.004691
 18 H s       :     0.820977  s :     0.820977
      pz      :     0.049986  p :     0.125651
      px      :     0.032936
      py      :     0.042729
 19 O s       :     3.414575  s :     3.414575
      pz      :     1.521420  p :     4.619195
      px      :     1.656468
      py      :     1.441307
      dz2     :     0.009638  d :     0.026349
      dxz     :     0.003842
      dyz     :     0.006571
      dx2y2   :     0.001065
      dxy     :     0.005232
 20 H s       :     0.722182  s :     0.722182
      pz      :     0.036713  p :     0.176472
      px      :     0.062295
      py      :     0.077464
 21 H s       :     0.793071  s :     0.793071
      pz      :     0.054893  p :     0.126554
      px      :     0.038437
      py      :     0.033224
 22 H s       :     0.899101  s :     0.899101
      pz      :     0.028308  p :     0.067313
      px      :     0.025461
      py      :     0.013545
 23 C s       :     2.840304  s :     2.840304
      pz      :     1.025667  p :     3.004723
      px      :     0.946376
      py      :     1.032680
      dz2     :     0.034255  d :     0.114506
      dxz     :     0.021646
      dyz     :     0.011791
      dx2y2   :     0.020970
      dxy     :     0.025844
 24 H s       :     0.901947  s :     0.901947
      pz      :     0.013867  p :     0.067131
      px      :     0.011869
      py      :     0.041395
 25 H s       :     0.908841  s :     0.908841
      pz      :     0.041334  p :     0.065562
      px      :     0.011983
      py      :     0.012246
 26 H s       :     0.884169  s :     0.884169
      pz      :     0.020361  p :     0.077647
      px      :     0.015590
      py      :     0.041696
 27 H s       :     0.898539  s :     0.898539
      pz      :     0.025056  p :     0.066348
      px      :     0.024509
      py      :     0.016783
 28 H s       :     0.900413  s :     0.900413
      pz      :     0.013678  p :     0.067175
      px      :     0.035237
      py      :     0.018260


                      *****************************
                      * MAYER POPULATION ANALYSIS *
                      *****************************

  NA   - Mulliken gross atomic population
  ZA   - Total nuclear charge
  QA   - Mulliken gross atomic charge
  VA   - Mayer's total valence
  BVA  - Mayer's bonded valence
  FA   - Mayer's free valence

  ATOM       NA         ZA         QA         VA         BVA        FA
  0 C      6.0131     6.0000    -0.0131     3.8449     3.8449     0.0000
  1 C      6.0178     6.0000    -0.0178     3.8649     3.8649     0.0000
  2 C      6.0531     6.0000    -0.0531     3.8814     3.8814     0.0000
  3 C      5.8310     6.0000     0.1690     3.8690     3.8690    -0.0000
  4 C      6.0872     6.0000    -0.0872     3.8912     3.8912     0.0000
  5 C      6.0144     6.0000    -0.0144     3.8880     3.8880     0.0000
  6 H      0.9782     1.0000     0.0218     0.9842     0.9842     0.0000
  7 H      0.9875     1.0000     0.0125     0.9938     0.9938    -0.0000
  8 N      7.3459     7.0000    -0.3459     3.1308     3.1308     0.0000
  9 C      5.8531     6.0000     0.1469     4.2331     4.2331     0.0000
 10 O      8.2356     8.0000    -0.2356     2.2900     2.2900     0.0000
 11 C      5.9990     6.0000     0.0010     3.8627     3.8627    -0.0000
 12 H      0.9352     1.0000     0.0648     1.0089     1.0089     0.0000
 13 H      0.9203     1.0000     0.0797     0.9904     0.9904     0.0000
 14 C      6.0400     6.0000    -0.0400     4.0903     4.0903     0.0000
 15 N      7.2222     7.0000    -0.2222     3.0788     3.0788    -0.0000
 16 C      5.9094     6.0000     0.0906     4.3653     4.3653     0.0000
 17 N      7.2033     7.0000    -0.2033     3.0123     3.0123     0.0000
 18 H      0.8998     1.0000     0.1002     1.0090     1.0090    -0.0000
 19 O      8.2230     8.0000    -0.2230     2.2025     2.2025     0.0000
 20 H      0.8003     1.0000     0.1997     1.0210     1.0210     0.0000
 21 H      0.8606     1.0000     0.1394     0.9996     0.9996     0.0000
 22 H      0.9456     1.0000     0.0544     1.0008     1.0008     0.0000
 23 C      5.8181     6.0000     0.1819     3.8262     3.8262     0.0000
 24 H      0.9417     1.0000     0.0583     1.0059     1.0059     0.0000
 25 H      0.9495     1.0000     0.0505     0.9786     0.9786     0.0000
 26 H      0.9610     1.0000     0.0390     1.0397     1.0397    -0.0000
 27 H      0.9745     1.0000     0.0255     0.9847     0.9847     0.0000
 28 H      0.9795     1.0000     0.0205     0.9846     0.9846    -0.0000

  Mayer bond orders larger than 0.100000
B(  0-C ,  1-C ) :   1.3839 B(  0-C ,  5-C ) :   1.4025 B(  0-C , 28-H ) :   0.9914 
B(  1-C ,  2-C ) :   1.3968 B(  1-C , 27-H ) :   0.9855 B(  2-C ,  3-C ) :   1.3939 
B(  2-C , 26-H ) :   0.9806 B(  3-C ,  4-C ) :   1.3717 B(  3-C ,  8-N ) :   0.9804 
B(  4-C ,  5-C ) :   1.3955 B(  4-C ,  7-H ) :   0.9855 B(  5-C ,  6-H ) :   0.9842 
B(  8-N ,  9-C ) :   1.1008 B(  8-N , 23-C ) :   0.9267 B(  9-C , 10-O ) :   2.0847 
B(  9-C , 11-C ) :   0.9633 B( 11-C , 12-H ) :   0.9467 B( 11-C , 13-H ) :   0.9263 
B( 11-C , 14-C ) :   1.0494 B( 14-C , 15-N ) :   0.9759 B( 14-C , 22-H ) :   0.9353 
B( 14-C , 23-C ) :   0.9934 B( 15-N , 16-C ) :   1.1253 B( 15-N , 21-H ) :   0.9339 
B( 16-C , 17-N ) :   1.9455 B( 16-C , 19-O ) :   1.1650 B( 17-N , 18-H ) :   0.9319 
B( 19-O , 20-H ) :   0.9484 B( 23-C , 24-H ) :   0.9462 B( 23-C , 25-H ) :   0.9482 


-------
TIMINGS
-------

Total SCF time: 0 days 0 hours 2 min 7 sec 

Total time                  ....     127.209 sec
Sum of individual times     ....     126.954 sec  ( 99.8%)

Fock matrix formation       ....     124.238 sec  ( 97.7%)
  XC integration            ....       5.347 sec  (  4.3% of F)
    Basis function eval.    ....       1.607 sec  ( 30.1% of XC)
    Density eval.           ....       1.075 sec  ( 20.1% of XC)
    XC-Functional eval.     ....       1.208 sec  ( 22.6% of XC)
    XC-Potential eval.      ....       1.311 sec  ( 24.5% of XC)
Diagonalization             ....       0.012 sec  (  0.0%)
Density matrix formation    ....       0.010 sec  (  0.0%)
Population analysis         ....       0.009 sec  (  0.0%)
Initial guess               ....       0.011 sec  (  0.0%)
Orbital Transformation      ....       0.000 sec  (  0.0%)
Orbital Orthonormalization  ....       0.008 sec  (  0.0%)
DIIS solution               ....       0.003 sec  (  0.0%)
SOSCF solution              ....       0.039 sec  (  0.0%)
Grid generation             ....       2.631 sec  (  2.1%)


-------------------------------------------------------------------------------
                          DFT DISPERSION CORRECTION                            
                                                                               
                              DFTD3 V3.1  Rev 1                                
                              USING zero damping                               
-------------------------------------------------------------------------------
The omegaB97X-D3 functional is recognized. Fit by Chai et al.
Active option DFTDOPT                   ...         3   

molecular C6(AA) [au] = 8962.315510 


            DFT-D V3
 parameters
 s6 scaling factor         :     1.0000 
 rs6 scaling factor        :     1.2810 
 s8 scaling factor         :     1.0000 
 rs8 scaling factor        :     1.0940 
 Damping factor alpha6     :    14.0000 
 Damping factor alpha8     :    16.0000 
 ad hoc parameters k1-k3   :    16.0000     1.3333    -4.0000 

 Edisp/kcal,au: -7.447510013057  -0.011868361398 
 E6   /kcal   :  -3.353726333 
 E8   /kcal   :  -4.093783680 
 % E8         :  54.968488428 

-------------------------   ----------------
Dispersion correction           -0.011868361
-------------------------   ----------------


-------------------------   --------------------
FINAL SINGLE POINT ENERGY      -740.994342143027
-------------------------   --------------------

                                *** OPTIMIZATION RUN DONE ***

                            ***************************************
                            *     ORCA property calculations      *
                            ***************************************

                                    ---------------------
                                    Active property flags
                                    ---------------------
   (+) Dipole Moment


------------------------------------------------------------------------------
                       ORCA ELECTRIC PROPERTIES CALCULATION
------------------------------------------------------------------------------

Dipole Moment Calculation                       ... on
Quadrupole Moment Calculation                   ... off
Polarizability Calculation                      ... off
GBWName                                         ... 043969333.gbw
Electron density file                           ... 043969333.scfp
The origin for moment calculation is the CENTER OF MASS  = ( 0.016708, -0.032166 -0.033153)

-------------
DIPOLE MOMENT
-------------
                                X             Y             Z
Electronic contribution:     -0.31824       2.07170      -1.29753
Nuclear contribution   :      0.08435      -2.35328       2.05087
                        -----------------------------------------
Total Dipole Moment    :     -0.23389      -0.28158       0.75334
                        -----------------------------------------
Magnitude (a.u.)       :      0.83756
Magnitude (Debye)      :      2.12891



--------------------
Rotational spectrum 
--------------------
 
Rotational constants in cm-1:     0.030381     0.010468     0.008927 
Rotational constants in MHz :   910.802343   313.821275   267.630790 

 Dipole components along the rotational axes: 
x,y,z [a.u.] :    -0.236201    -0.304206     0.743757 
x,y,z [Debye]:    -0.600375    -0.773229     1.890481 

 

Timings for individual modules:

Sum of individual times         ...     3589.967 sec (=  59.833 min)
GTO integral calculation        ...        4.285 sec (=   0.071 min)   0.1 %
SCF iterations                  ...     2363.661 sec (=  39.394 min)  65.8 %
SCF Gradient evaluation         ...     1219.680 sec (=  20.328 min)  34.0 %
Geometry relaxation             ...        2.342 sec (=   0.039 min)   0.1 %
                             ****ORCA TERMINATED NORMALLY****
TOTAL RUN TIME: 0 days 0 hours 59 minutes 52 seconds 341 msec
