
                                 *****************
                                 * O   R   C   A *
                                 *****************

           --- An Ab Initio, DFT and Semiempirical electronic structure package ---

                  #######################################################
                  #                        -***-                        #
                  #          Department of theory and spectroscopy      #
                  #               Directorship: Frank Neese             #
                  #        Max Planck Institute fuer Kohlenforschung    #
                  #                Kaiser Wilhelm Platz 1               #
                  #                 D-45470 Muelheim/Ruhr               #
                  #                      Germany                        #
                  #                                                     #
                  #                  All rights reserved                #
                  #                        -***-                        #
                  #######################################################


                         Program Version 4.2.0 -  RELEASE  -


 With contributions from (in alphabetic order):
   Daniel Aravena         : Magnetic Suceptibility
   Michael Atanasov       : Ab Initio Ligand Field Theory (pilot matlab implementation)
   Alexander A. Auer      : GIAO ZORA, VPT2
   Ute Becker             : Parallelization
   Giovanni Bistoni       : ED, misc. LED, open-shell LED, HFLED
   Martin Brehm           : Molecular dynamics
   Dmytro Bykov           : SCF Hessian
   Vijay G. Chilkuri      : MRCI spin determinant printing, contributions to CSF-ICE
   Dipayan Datta          : RHF DLPNO-CCSD density
   Achintya Kumar Dutta   : EOM-CC, STEOM-CC
   Dmitry Ganyushin       : Spin-Orbit,Spin-Spin,Magnetic field MRCI
   Miquel Garcia          : C-PCM Hessian, Gaussian charge scheme
   Yang Guo               : DLPNO-NEVPT2, CIM, IAO-localization
   Andreas Hansen         : Spin unrestricted coupled pair/coupled cluster methods
   Benjamin Helmich-Paris : CASSCF linear response (MC-RPA)
   Lee Huntington         : MR-EOM, pCC
   Robert Izsak           : Overlap fitted RIJCOSX, COSX-SCS-MP3, EOM
   Christian Kollmar      : KDIIS, OOCD, Brueckner-CCSD(T), CCSD density
   Simone Kossmann        : Meta GGA functionals, TD-DFT gradient, OOMP2, MP2 Hessian
   Martin Krupicka        : AUTO-CI
   Lucas Lang             : DCDCAS
   Dagmar Lenk            : GEPOL surface, SMD
   Dimitrios Liakos       : Extrapolation schemes; Compound Job, initial MDCI parallelization
   Dimitrios Manganas     : Further ROCIS development; embedding schemes
   Dimitrios Pantazis     : SARC Basis sets
   Taras Petrenko         : DFT Hessian,TD-DFT gradient, ASA, ECA, R-Raman, ABS, FL, XAS/XES, NRVS
   Peter Pinski           : DLPNO-MP2, DLPNO-MP2 Gradient
   Christoph Reimann      : Effective Core Potentials
   Marius Retegan         : Local ZFS, SOC
   Christoph Riplinger    : Optimizer, TS searches, QM/MM, DLPNO-CCSD(T), (RO)-DLPNO pert. Triples
   Tobias Risthaus        : Range-separated hybrids, TD-DFT gradient, RPA, STAB
   Michael Roemelt        : Original ROCIS implementation
   Masaaki Saitow         : Open-shell DLPNO-CCSD energy and density
   Barbara Sandhoefer     : DKH picture change effects
   Avijit Sen             : IP-ROCIS
   Kantharuban Sivalingam : CASSCF convergence, NEVPT2, FIC-MRCI
   Bernardo de Souza      : ESD, SOC TD-DFT
   Georgi Stoychev        : AutoAux, RI-MP2 NMR
   Willem Van den Heuvel  : Paramagnetic NMR
   Boris Wezisla          : Elementary symmetry handling
   Frank Wennmohs         : Technical directorship


 We gratefully acknowledge several colleagues who have allowed us to
 interface, adapt or use parts of their codes:
   Stefan Grimme, W. Hujo, H. Kruse,             : VdW corrections, initial TS optimization,
                  C. Bannwarth                     DFT functionals, gCP, sTDA/sTD-DF
   Ed Valeev, F. Pavosevic, A. Kumar             : LibInt (2-el integral package), F12 methods
   Garnet Chan, S. Sharma, J. Yang, R. Olivares  : DMRG
   Ulf Ekstrom                                   : XCFun DFT Library
   Mihaly Kallay                                 : mrcc  (arbitrary order and MRCC methods)
   Andreas Klamt, Michael Diedenhofen            : otool_cosmo (COSMO solvation model)
   Jiri Pittner, Ondrej Demel                    : Mk-CCSD
   Frank Weinhold                                : gennbo (NPA and NBO analysis)
   Christopher J. Cramer and Donald G. Truhlar   : smd solvation model
   Lars Goerigk                                  : TD-DFT with DH, B97 family of functionals
   V. Asgeirsson, H. Jonsson                     : NEB implementation
   FAccTs GmbH                                   : IRC, NEB, NEB-TS, Multilevel, MM, QM/MM, CI optimization
   S Lehtola, MJT Oliveira, MAL Marques          : LibXC Library


 Your calculation uses the libint2 library for the computation of 2-el integrals
 For citations please refer to: http://libint.valeyev.net

 Your ORCA version has been built with support for libXC version: 4.2.3
 For citations please refer to: https://tddft.org/programs/libxc/

 This ORCA versions uses:
   CBLAS   interface :  Fast vector & matrix operations
   LAPACKE interface :  Fast linear algebra routines
   SCALAPACK package :  Parallel linear algebra routines


Your calculation utilizes the atom-pairwise dispersion correction
with the zero-damping scheme (D30)
Cite in your paper:
S.Grimme, J.Antony, S.Ehrlich and H.Krieg, J.Chem.Phys., 132, (2010), 154104 
   

XCFun DFT library Copyright 2009-2010 Ulf Ekstrom and contributors.
See http://admol.org/xcfun for more information. This is free soft-
ware; see the source code for copying conditions. There is ABSOLUTELY
NO WARRANTY; not even for MERCHANTABILITY or FITNESS FOR A PARTICULAR
PURPOSE. For details see the documentation. Scientific users of this 
library should cite U. Ekstrom, L. Visscher, R. Bast, A. J. Thorvald-
sen and K. Ruud; J.Chem.Theor.Comp. 2010, DOI: 10.1021/ct100117s
XCFun Version 0.99 
----- Orbital basis set information -----
Your calculation utilizes the basis: def2-SVP
   F. Weigend and R. Ahlrichs, Phys. Chem. Chem. Phys. 7, 3297 (2005).

================================================================================
                                        WARNINGS
                       Please study these warnings very carefully!
================================================================================


WARNING: Geometry Optimization
  ===> : Switching off AutoStart
         For restart on a previous wavefunction, please use MOREAD

INFO   : the flag for use of LIBINT has been found!

================================================================================
                                       INPUT FILE
================================================================================
NAME = 072800758.inp
|  1> # ORCA input file
|  2> # -42.48089389
|  3> ! wB97X-D3 def2-SVP Opt
|  4> * xyz 0 1
|  5>    C       -2.34880        -2.88170        -1.31420
|  6>    C       -1.73950        -1.65580        -0.72520
|  7>    C       -1.82220        -1.31800         0.55060
|  8>    C       -1.23980        -0.06880         1.16200
|  9>    N       -0.29250         0.60910         0.29040
| 10>    C       -0.87400         1.61530        -0.42620
| 11>    O       -0.35690         2.28170        -1.29180
| 12>    C       -2.31560         1.74380         0.04410
| 13>    C       -2.33660         0.99140         1.36650
| 14>    H       -3.30150         0.53870         1.58670
| 15>    H       -2.06550         1.65730         2.18690
| 16>    H       -2.59950         2.79140         0.12310
| 17>    H       -2.95950         1.27000        -0.69940
| 18>    C        1.03790         0.18060         0.18360
| 19>    C        1.40170        -1.09660         0.60820
| 20>    C        2.71920        -1.50910         0.52980
| 21>    C        3.69280        -0.66400         0.02790
| 22>    C        3.33480         0.60410        -0.39700
| 23>    C        2.02270         1.03000        -0.31860
| 24>    H        1.75550         2.01730        -0.65490
| 25>    H        4.08480         1.27430        -0.79030
| 26>    H        4.71980        -0.99140        -0.03320
| 27>    H        2.98240        -2.50290         0.86190
| 28>    H        0.65730        -1.78010         0.98510
| 29>    H       -0.75000        -0.31970         2.11040
| 30>    H       -2.36890        -1.93890         1.24870
| 31>    H       -1.18990        -1.03260        -1.41910
| 32>    H       -2.88650        -3.45440        -0.56270
| 33>    H       -3.03840        -2.61010        -2.11270
| 34>    H       -1.57390        -3.51070        -1.75120
| 35> *
| 36> 
| 37>                          ****END OF INPUT****
================================================================================

                       *****************************
                       * Geometry Optimization Run *
                       *****************************

Geometry optimization settings:
Update method            Update   .... BFGS
Choice of coordinates    CoordSys .... Z-matrix Internals
Initial Hessian          InHess   .... Almoef's Model

Convergence Tolerances:
Energy Change            TolE     ....  5.0000e-06 Eh
Max. Gradient            TolMAXG  ....  3.0000e-04 Eh/bohr
RMS Gradient             TolRMSG  ....  1.0000e-04 Eh/bohr
Max. Displacement        TolMAXD  ....  4.0000e-03 bohr
RMS Displacement         TolRMSD  ....  2.0000e-03 bohr
Strict Convergence                ....  False
------------------------------------------------------------------------------
                        ORCA OPTIMIZATION COORDINATE SETUP
------------------------------------------------------------------------------

The optimization will be done in new redundant internal coordinates
Making redundant internal coordinates   ...  (new redundants) done
Evaluating the initial hessian          ...  (Almloef) done
Evaluating the coordinates              ...  done
Calculating the B-matrix                .... done
Calculating the G-matrix                .... done
Diagonalizing the G-matrix              .... done
Small eigenvalue found = 6.909e-03
Small eigenvalue found = 1.378e-02
Small eigenvalue found = 2.096e-02
The first mode is                       ....   79
The number of degrees of freedom        ....   84

    -----------------------------------------------------------------
                    Redundant Internal Coordinates


    -----------------------------------------------------------------
         Definition                    Initial Value    Approx d2E/dq
    -----------------------------------------------------------------
      1. B(C   1,C   0)                  1.4903         0.432229   
      2. B(C   2,C   1)                  1.3224         0.801064   
      3. B(C   3,C   2)                  1.5078         0.405299   
      4. B(N   4,C   3)                  1.4549         0.440959   
      5. B(C   5,N   4)                  1.3653         0.612706   
      6. B(O   6,C   5)                  1.2086         1.089600   
      7. B(C   7,C   5)                  1.5218         0.384986   
      8. B(C   8,C   7)                  1.5216         0.385272   
      9. B(C   8,C   3)                  1.5391         0.361299   
     10. B(H   9,C   8)                  1.0883         0.362319   
     11. B(H  10,C   8)                  1.0909         0.358965   
     12. B(H  11,C   7)                  1.0883         0.362412   
     13. B(H  12,C   7)                  1.0917         0.357812   
     14. B(C  13,N   4)                  1.4018         0.535900   
     15. B(C  14,C  13)                  1.3942         0.615164   
     16. B(C  15,C  14)                  1.3828         0.641566   
     17. B(C  16,C  15)                  1.3835         0.639961   
     18. B(C  17,C  16)                  1.3845         0.637598   
     19. B(C  18,C  17)                  1.3817         0.644099   
     20. B(C  18,C  13)                  1.3941         0.615455   
     21. B(H  19,C  18)                  1.0767         0.378149   
     22. B(H  20,C  17)                  1.0800         0.373605   
     23. B(H  21,C  16)                  1.0797         0.374050   
     24. B(H  22,C  15)                  1.0804         0.373065   
     25. B(H  23,C  14)                  1.0786         0.375514   
     26. B(H  24,C   3)                  1.0965         0.351600   
     27. B(H  25,C   2)                  1.0825         0.370200   
     28. B(H  26,C   1)                  1.0826         0.370078   
     29. B(H  27,C   0)                  1.0871         0.363912   
     30. B(H  28,C   0)                  1.0895         0.360819   
     31. B(H  29,C   0)                  1.0895         0.360720   
     32. A(C   1,C   0,H  29)          110.0371         0.332311   
     33. A(H  27,C   0,H  28)          108.9602         0.291412   
     34. A(H  28,C   0,H  29)          107.4659         0.291009   
     35. A(C   1,C   0,H  27)          111.2445         0.332796   
     36. A(C   1,C   0,H  28)          110.0836         0.332326   
     37. A(H  27,C   0,H  29)          108.9599         0.291400   
     38. A(C   0,C   1,H  26)          115.3264         0.333725   
     39. A(C   2,C   1,H  26)          120.2059         0.370402   
     40. A(C   0,C   1,C   2)          124.4629         0.425997   
     41. A(C   1,C   2,C   3)          125.3589         0.421126   
     42. A(C   1,C   2,H  25)          120.4821         0.370423   
     43. A(C   3,C   2,H  25)          114.1287         0.330206   
     44. A(C   2,C   3,C   8)          110.4458         0.366354   
     45. A(C   8,C   3,H  24)          111.1630         0.321287   
     46. A(N   4,C   3,H  24)          109.5082         0.330002   
     47. A(N   4,C   3,C   8)          102.8642         0.369373   
     48. A(C   2,C   3,N   4)          113.2418         0.376761   
     49. A(C   2,C   3,H  24)          109.4925         0.327408   
     50. A(C   5,N   4,C  13)          126.1224         0.416517   
     51. A(C   3,N   4,C  13)          121.4116         0.393019   
     52. A(C   3,N   4,C   5)          112.3657         0.402376   
     53. A(O   6,C   5,C   7)          125.4555         0.438059   
     54. A(N   4,C   5,O   6)          126.8717         0.473580   
     55. A(N   4,C   5,C   7)          107.6671         0.395415   
     56. A(H  11,C   7,H  12)          108.2611         0.290841   
     57. A(C   5,C   7,C   8)          103.8807         0.367161   
     58. A(C   8,C   7,H  12)          111.6620         0.325625   
     59. A(C   5,C   7,H  12)          108.1556         0.325585   
     60. A(C   8,C   7,H  11)          114.1617         0.326310   
     61. A(C   5,C   7,H  11)          110.5389         0.326270   
     62. A(C   7,C   8,H  10)          110.3853         0.325797   
     63. A(C   3,C   8,H  10)          110.0794         0.322379   
     64. A(C   7,C   8,H   9)          113.1886         0.326296   
     65. A(C   3,C   8,H   9)          111.8488         0.322871   
     66. A(C   3,C   8,C   7)          102.4336         0.363191   
     67. A(H   9,C   8,H  10)          108.7892         0.290976   
     68. A(C  14,C  13,C  18)          118.9156         0.432882   
     69. A(N   4,C  13,C  18)          120.7727         0.419569   
     70. A(N   4,C  13,C  14)          120.2960         0.419533   
     71. A(C  13,C  14,C  15)          120.3059         0.436131   
     72. A(C  15,C  14,H  23)          119.2320         0.357494   
     73. A(C  13,C  14,H  23)          120.4535         0.354953   
     74. A(C  14,C  15,C  16)          120.5875         0.439250   
     75. A(C  16,C  15,H  22)          120.1310         0.356945   
     76. A(C  14,C  15,H  22)          119.2811         0.357097   
     77. A(C  15,C  16,C  17)          119.2665         0.438759   
     78. A(C  17,C  16,H  21)          120.4214         0.356881   
     79. A(C  15,C  16,H  21)          120.3120         0.357105   
     80. A(C  16,C  17,C  18)          120.6950         0.439269   
     81. A(C  18,C  17,H  20)          119.2649         0.357424   
     82. A(C  16,C  17,H  20)          120.0394         0.356808   
     83. A(C  13,C  18,C  17)          120.2284         0.436478   
     84. A(C  17,C  18,H  19)          120.0391         0.358160   
     85. A(C  13,C  18,H  19)          119.7297         0.355403   
     86. D(H  26,C   1,C   0,H  28)    -58.8720         0.013794   
     87. D(H  26,C   1,C   0,H  29)     59.3899         0.013794   
     88. D(C   2,C   1,C   0,H  29)   -119.8079         0.013794   
     89. D(C   2,C   1,C   0,H  28)    121.9301         0.013794   
     90. D(H  26,C   1,C   0,H  27)   -179.7568         0.013794   
     91. D(C   2,C   1,C   0,H  27)      1.0454         0.013794   
     92. D(C   3,C   2,C   1,H  26)      2.2467         0.046384   
     93. D(H  25,C   2,C   1,H  26)   -179.8758         0.046384   
     94. D(H  25,C   2,C   1,C   0)     -0.7148         0.046384   
     95. D(C   3,C   2,C   1,C   0)   -178.5923         0.046384   
     96. D(H  24,C   3,C   2,C   1)   -136.2111         0.012177   
     97. D(C   8,C   3,C   2,H  25)    -76.9370         0.012177   
     98. D(C   8,C   3,C   2,C   1)    101.0587         0.012177   
     99. D(N   4,C   3,C   2,H  25)    168.3102         0.012177   
    100. D(N   4,C   3,C   2,C   1)    -13.6940         0.012177   
    101. D(H  24,C   3,C   2,H  25)     45.7931         0.012177   
    102. D(C  13,N   4,C   3,C   2)    -80.9591         0.016581   
    103. D(C  13,N   4,C   3,C   8)    159.8291         0.016581   
    104. D(C   5,N   4,C   3,H  24)   -141.8807         0.016581   
    105. D(C  13,N   4,C   3,H  24)     41.5493         0.016581   
    106. D(C   5,N   4,C   3,C   8)    -23.6009         0.016581   
    107. D(C   5,N   4,C   3,C   2)     95.6109         0.016581   
    108. D(C   7,C   5,N   4,C  13)   -178.8424         0.030343   
    109. D(C   7,C   5,N   4,C   3)      4.7819         0.030343   
    110. D(O   6,C   5,N   4,C  13)      1.9933         0.030343   
    111. D(O   6,C   5,N   4,C   3)   -174.3825         0.030343   
    112. D(H  11,C   7,C   5,O   6)    -41.5690         0.011043   
    113. D(H  11,C   7,C   5,N   4)    139.2517         0.011043   
    114. D(C   8,C   7,C   5,O   6)   -164.4456         0.011043   
    115. D(H  12,C   7,C   5,N   4)   -102.3882         0.011043   
    116. D(C   8,C   7,C   5,N   4)     16.3751         0.011043   
    117. D(H  12,C   7,C   5,O   6)     76.7911         0.011043   
    118. D(H  10,C   8,C   7,H  12)   -155.8774         0.011814   
    119. D(H  10,C   8,C   7,H  11)    -32.6672         0.011814   
    120. D(H  10,C   8,C   7,C   5)     87.7943         0.011814   
    121. D(H   9,C   8,C   7,H  11)     89.5403         0.011814   
    122. D(H   9,C   8,C   7,C   5)   -149.9982         0.011814   
    123. D(C   3,C   8,C   7,H  12)     86.9296         0.011814   
    124. D(C   3,C   8,C   7,H  11)   -149.8601         0.011814   
    125. D(C   3,C   8,C   7,C   5)    -29.3986         0.011814   
    126. D(H  10,C   8,C   3,H  24)     31.6297         0.010467   
    127. D(H  10,C   8,C   3,N   4)    -85.4817         0.010467   
    128. D(H   9,C   8,C   3,H  24)    -89.4371         0.010467   
    129. D(H   9,C   8,C   3,N   4)    153.4515         0.010467   
    130. D(H   9,C   8,C   3,C   2)     32.3119         0.010467   
    131. D(H   9,C   8,C   7,H  12)    -33.6700         0.011814   
    132. D(H  10,C   8,C   3,C   2)    153.3787         0.010467   
    133. D(C   7,C   8,C   3,H  24)    149.0411         0.010467   
    134. D(C   7,C   8,C   3,N   4)     31.9296         0.010467   
    135. D(C   7,C   8,C   3,C   2)    -89.2100         0.010467   
    136. D(C  18,C  13,N   4,C   5)     23.0029         0.022830   
    137. D(C  18,C  13,N   4,C   3)   -160.9247         0.022830   
    138. D(C  14,C  13,N   4,C   5)   -158.4509         0.022830   
    139. D(C  14,C  13,N   4,C   3)     17.6215         0.022830   
    140. D(H  23,C  14,C  13,C  18)   -178.9443         0.026161   
    141. D(H  23,C  14,C  13,N   4)      2.4827         0.026161   
    142. D(C  15,C  14,C  13,C  18)     -0.0223         0.026161   
    143. D(C  15,C  14,C  13,N   4)   -178.5954         0.026161   
    144. D(H  22,C  15,C  14,H  23)     -0.9611         0.028607   
    145. D(H  22,C  15,C  14,C  13)   -179.8962         0.028607   
    146. D(C  16,C  15,C  14,H  23)    178.8091         0.028607   
    147. D(C  16,C  15,C  14,C  13)     -0.1260         0.028607   
    148. D(C  17,C  16,C  15,C  14)      0.0048         0.028455   
    149. D(H  21,C  16,C  15,H  22)     -0.1047         0.028455   
    150. D(H  21,C  16,C  15,C  14)   -179.8730         0.028455   
    151. D(C  17,C  16,C  15,H  22)    179.7730         0.028455   
    152. D(H  20,C  17,C  16,H  21)     -0.1640         0.028231   
    153. D(H  20,C  17,C  16,C  15)    179.9583         0.028231   
    154. D(C  18,C  17,C  16,H  21)   -179.8545         0.028231   
    155. D(C  18,C  17,C  16,C  15)      0.2679         0.028231   
    156. D(H  19,C  18,C  17,H  20)      0.4963         0.028849   
    157. D(H  19,C  18,C  17,C  16)   -179.8109         0.028849   
    158. D(C  13,C  18,C  17,H  20)    179.8883         0.028849   
    159. D(C  13,C  18,C  17,C  16)     -0.4189         0.028849   
    160. D(H  19,C  18,C  13,C  14)    179.6861         0.026188   
    161. D(H  19,C  18,C  13,N   4)     -1.7479         0.026188   
    162. D(C  17,C  18,C  13,C  14)      0.2922         0.026188   
    163. D(C  17,C  18,C  13,N   4)    178.8582         0.026188   
    -----------------------------------------------------------------

Number of atoms                         .... 30
Number of degrees of freedom            .... 163

         *************************************************************
         *                GEOMETRY OPTIMIZATION CYCLE   1            *
         *************************************************************
---------------------------------
CARTESIAN COORDINATES (ANGSTROEM)
---------------------------------
  C     -2.348800   -2.881700   -1.314200
  C     -1.739500   -1.655800   -0.725200
  C     -1.822200   -1.318000    0.550600
  C     -1.239800   -0.068800    1.162000
  N     -0.292500    0.609100    0.290400
  C     -0.874000    1.615300   -0.426200
  O     -0.356900    2.281700   -1.291800
  C     -2.315600    1.743800    0.044100
  C     -2.336600    0.991400    1.366500
  H     -3.301500    0.538700    1.586700
  H     -2.065500    1.657300    2.186900
  H     -2.599500    2.791400    0.123100
  H     -2.959500    1.270000   -0.699400
  C      1.037900    0.180600    0.183600
  C      1.401700   -1.096600    0.608200
  C      2.719200   -1.509100    0.529800
  C      3.692800   -0.664000    0.027900
  C      3.334800    0.604100   -0.397000
  C      2.022700    1.030000   -0.318600
  H      1.755500    2.017300   -0.654900
  H      4.084800    1.274300   -0.790300
  H      4.719800   -0.991400   -0.033200
  H      2.982400   -2.502900    0.861900
  H      0.657300   -1.780100    0.985100
  H     -0.750000   -0.319700    2.110400
  H     -2.368900   -1.938900    1.248700
  H     -1.189900   -1.032600   -1.419100
  H     -2.886500   -3.454400   -0.562700
  H     -3.038400   -2.610100   -2.112700
  H     -1.573900   -3.510700   -1.751200

----------------------------
CARTESIAN COORDINATES (A.U.)
----------------------------
  NO LB      ZA    FRAG     MASS         X           Y           Z
   0 C     6.0000    0    12.011   -4.438589   -5.445624   -2.483478
   1 C     6.0000    0    12.011   -3.287179   -3.129009   -1.370429
   2 C     6.0000    0    12.011   -3.443459   -2.490659    1.040483
   3 C     6.0000    0    12.011   -2.342882   -0.130013    2.195862
   4 N     7.0000    0    14.007   -0.552745    1.151032    0.548776
   5 C     6.0000    0    12.011   -1.651621    3.052475   -0.805401
   6 O     8.0000    0    15.999   -0.674443    4.311788   -2.441148
   7 C     6.0000    0    12.011   -4.375850    3.295304    0.083337
   8 C     6.0000    0    12.011   -4.415534    1.873474    2.582311
   9 H     1.0000    0     1.008   -6.238931    1.017995    2.998428
  10 H     1.0000    0     1.008   -3.903229    3.131843    4.132642
  11 H     1.0000    0     1.008   -4.912343    5.274982    0.232625
  12 H     1.0000    0     1.008   -5.592644    2.399952   -1.321674
  13 C     6.0000    0    12.011    1.961347    0.341285    0.346954
  14 C     6.0000    0    12.011    2.648829   -2.072274    1.149331
  15 C     6.0000    0    12.011    5.138543   -2.851786    1.001177
  16 C     6.0000    0    12.011    6.978381   -1.254778    0.052723
  17 C     6.0000    0    12.011    6.301859    1.141584   -0.750221
  18 C     6.0000    0    12.011    3.822349    1.946418   -0.602067
  19 H     1.0000    0     1.008    3.317414    3.812145   -1.237582
  20 H     1.0000    0     1.008    7.719153    2.408078   -1.493451
  21 H     1.0000    0     1.008    8.919129   -1.873474   -0.062739
  22 H     1.0000    0     1.008    5.635919   -4.729796    1.628755
  23 H     1.0000    0     1.008    1.242117   -3.363901    1.861569
  24 H     1.0000    0     1.008   -1.417295   -0.604145    3.988078
  25 H     1.0000    0     1.008   -4.476572   -3.663990    2.359701
  26 H     1.0000    0     1.008   -2.248585   -1.951331   -2.681710
  27 H     1.0000    0     1.008   -5.454694   -6.527870   -1.063349
  28 H     1.0000    0     1.008   -5.741744   -4.932374   -3.992424
  29 H     1.0000    0     1.008   -2.974240   -6.634262   -3.309288

--------------------------------
INTERNAL COORDINATES (ANGSTROEM)
--------------------------------
 C      0   0   0     0.000000000000     0.00000000     0.00000000
 C      1   0   0     1.490301412467     0.00000000     0.00000000
 C      2   1   0     1.322351606041   124.46289342     0.00000000
 C      3   2   1     1.507813105129   125.35891804   181.40771681
 N      4   3   2     1.454858158035   113.24182574   346.30598493
 C      5   4   3     1.365319101895   112.36565774    95.61088152
 O      6   5   4     1.208612729537   126.87171023   185.61754197
 C      6   5   4     1.521809745008   107.66710956     4.78185885
 C      8   6   5     1.521607216071   103.88072181    16.37510541
 H      9   8   6     1.088327772319   113.18856259   210.00178592
 H      9   8   6     1.090859376822   110.38527220    87.79434351
 H      8   6   5     1.088258227628   110.53894962   139.25171270
 H      8   6   5     1.091735270109   108.15562534   257.61181897
 C      5   4   3     1.401778388334   121.41163556   279.04087432
 C     14   5   4     1.394229335511   120.29604009    17.62154617
 C     15  14   5     1.382790316715   120.30586964   181.40462863
 C     16  15  14     1.383471929603   120.58749953   359.87399565
 C     17  16  15     1.384478826129   119.26648400     0.00000000
 C     18  17  16     1.381717691860   120.69497779     0.26787516
 H     19  18  17     1.076686964721   120.03912303   180.18914344
 H     18  17  16     1.079978208113   120.03940195   179.95833744
 H     17  16  15     1.079654097385   120.31196079   180.12704965
 H     16  15  14     1.080371736950   119.28108740   180.10384033
 H     15  14   5     1.078590385642   120.45348510     2.48266765
 H      4   3   2     1.096502352939   109.49254587   223.78888216
 H      3   2   1     1.082470004203   120.48209845   359.28515759
 H      2   1   3     1.082559748928   115.32637598   179.19781304
 H      1   2   3     1.087133308293   111.24445141     1.04535927
 H      1   2   3     1.089457190531   110.08356921   121.93014026
 H      1   2   3     1.089532014215   110.03713441   240.19210923

---------------------------
INTERNAL COORDINATES (A.U.)
---------------------------
 C      0   0   0     0.000000000000     0.00000000     0.00000000
 C      1   0   0     2.816261526558     0.00000000     0.00000000
 C      2   1   0     2.498882388169   124.46289342     0.00000000
 C      3   2   1     2.849353829832   125.35891804   181.40771681
 N      4   3   2     2.749283482387   113.24182574   346.30598493
 C      5   4   3     2.580079187993   112.36565774    95.61088152
 O      6   5   4     2.283947060797   126.87171023   185.61754197
 C      6   5   4     2.875803645997   107.66710956     4.78185885
 C      8   6   5     2.875420921773   103.88072181    16.37510541
 H      9   8   6     2.056641433623   113.18856259   210.00178592
 H      9   8   6     2.061425472813   110.38527220    87.79434351
 H      8   6   5     2.056510013203   110.53894962   139.25171270
 H      8   6   5     2.063080671249   108.15562534   257.61181897
 C      5   4   3     2.648977254401   121.41163556   279.04087432
 C     14   5   4     2.634711611995   120.29604009    17.62154617
 C     15  14   5     2.613094999229   120.30586964   181.40462863
 C     16  15  14     2.614383060918   120.58749953   359.87399565
 C     17  16  15     2.616285819597   119.26648400     0.00000000
 C     18  17  16     2.611068032010   120.69497779     0.26787516
 H     19  18  17     2.034643495286   120.03912303   180.18914344
 H     18  17  16     2.040863043937   120.03940195   179.95833744
 H     17  16  15     2.040250563423   120.31196079   180.12704965
 H     16  15  14     2.041606705664   119.28108740   180.10384033
 H     15  14   5     2.038240439544   120.45348510     2.48266765
 H      4   3   2     2.072089152254   109.49254587   223.78888216
 H      3   2   1     2.045571856129   120.48209845   359.28515759
 H      2   1   3     2.045741449081   115.32637598   179.19781304
 H      1   2   3     2.054384223737   111.24445141     1.04535927
 H      1   2   3     2.058775724735   110.08356921   121.93014026
 H      1   2   3     2.058917121006   110.03713441   240.19210923

---------------------
BASIS SET INFORMATION
---------------------
There are 4 groups of distinct atoms

 Group   1 Type C   : 7s4p1d contracted to 3s2p1d pattern {511/31/1}
 Group   2 Type N   : 7s4p1d contracted to 3s2p1d pattern {511/31/1}
 Group   3 Type O   : 7s4p1d contracted to 3s2p1d pattern {511/31/1}
 Group   4 Type H   : 4s1p contracted to 2s1p pattern {31/1}

Atom   0C    basis set group =>   1
Atom   1C    basis set group =>   1
Atom   2C    basis set group =>   1
Atom   3C    basis set group =>   1
Atom   4N    basis set group =>   2
Atom   5C    basis set group =>   1
Atom   6O    basis set group =>   3
Atom   7C    basis set group =>   1
Atom   8C    basis set group =>   1
Atom   9H    basis set group =>   4
Atom  10H    basis set group =>   4
Atom  11H    basis set group =>   4
Atom  12H    basis set group =>   4
Atom  13C    basis set group =>   1
Atom  14C    basis set group =>   1
Atom  15C    basis set group =>   1
Atom  16C    basis set group =>   1
Atom  17C    basis set group =>   1
Atom  18C    basis set group =>   1
Atom  19H    basis set group =>   4
Atom  20H    basis set group =>   4
Atom  21H    basis set group =>   4
Atom  22H    basis set group =>   4
Atom  23H    basis set group =>   4
Atom  24H    basis set group =>   4
Atom  25H    basis set group =>   4
Atom  26H    basis set group =>   4
Atom  27H    basis set group =>   4
Atom  28H    basis set group =>   4
Atom  29H    basis set group =>   4
------------------------------------------------------------------------------
                           ORCA GTO INTEGRAL CALCULATION
------------------------------------------------------------------------------

                         BASIS SET STATISTICS AND STARTUP INFO

 # of primitive gaussian shells          ...  255
 # of primitive gaussian functions       ...  465
 # of contracted shells                  ...  135
 # of contracted basis functions         ...  285
 Highest angular momentum                ...    2
 Maximum contraction depth               ...    5
 Integral package used                   ... LIBINT
 Integral threshhold            Thresh   ...  2.500e-11
 Primitive cut-off              TCut     ...  2.500e-12


------------------------------ INTEGRAL EVALUATION ----------------------------


 * One electron integrals 
 Pre-screening matrix                    ... done
 Shell pair data                         ... done (   0.002 sec)

-------------------------------------------------------------------------------
                                 ORCA SCF
-------------------------------------------------------------------------------

------------
SCF SETTINGS
------------
Hamiltonian:
 Density Functional     Method          .... DFT(GTOs)
 Exchange Functional    Exchange        .... WB97X-D3
 Correlation Functional Correlation     .... WB97X-D3
 Gradients option       PostSCFGGA      .... off
 Hybrid DFT is turned on
   Fraction HF Exchange ScalHFX         ....  0.195728
   Scaling of DF-GGA-X  ScalDFX         ....  0.000000
   Scaling of DF-GGA-C  ScalDFC         ....  1.000000
   Scaling of DF-LDA-C  ScalLDAC        ....  1.000000
   Perturbative correction              ....  0.000000
   Density functional embedding theory  .... OFF
 Long-range corrected/Screened/Range-Separated Hybrid DFT is turned on
   Amount of maximum screened exact exchange              ....  0.804272
   Range separation parameter mu (erf(mu*r12)/r12)        ....  0.250000


General Settings:
 Integral files         IntName         .... 072800758
 Hartree-Fock type      HFTyp           .... RHF
 Total Charge           Charge          ....    0
 Multiplicity           Mult            ....    1
 Number of Electrons    NEL             ....  108
 Basis Dimension        Dim             ....  285
 Nuclear Repulsion      ENuc            ....    979.7446166940 Eh

Convergence Acceleration:
 DIIS                   CNVDIIS         .... on
   Start iteration      DIISMaxIt       ....    12
   Startup error        DIISStart       ....  0.200000
   # of expansion vecs  DIISMaxEq       ....     5
   Bias factor          DIISBfac        ....   1.050
   Max. coefficient     DIISMaxC        ....  10.000
 Newton-Raphson         CNVNR           .... off
 SOSCF                  CNVSOSCF        .... on
   Start iteration      SOSCFMaxIt      ....   150
   Startup grad/error   SOSCFStart      ....  0.003300
 Level Shifting         CNVShift        .... on
   Level shift para.    LevelShift      ....    0.2500
   Turn off err/grad.   ShiftErr        ....    0.0010
 Zerner damping         CNVZerner       .... off
 Static damping         CNVDamp         .... on
   Fraction old density DampFac         ....    0.7000
   Max. Damping (<1)    DampMax         ....    0.9800
   Min. Damping (>=0)   DampMin         ....    0.0000
   Turn off err/grad.   DampErr         ....    0.1000
 Fernandez-Rico         CNVRico         .... off

SCF Procedure:
 Maximum # iterations   MaxIter         ....   125
 SCF integral mode      SCFMode         .... Direct
   Integral package                     .... LIBINT
 Reset frequency        DirectResetFreq ....    20
 Integral Threshold     Thresh          ....  2.500e-11 Eh
 Primitive CutOff       TCut            ....  2.500e-12 Eh

Convergence Tolerance:
 Convergence Check Mode ConvCheckMode   .... Total+1el-Energy
 Convergence forced     ConvForced      .... 0
 Energy Change          TolE            ....  1.000e-08 Eh
 1-El. energy change                    ....  1.000e-05 Eh
 Orbital Gradient       TolG            ....  1.000e-05
 Orbital Rotation angle TolX            ....  1.000e-05
 DIIS Error             TolErr          ....  5.000e-07


Diagonalization of the overlap matrix:
Smallest eigenvalue                        ... 2.542e-04
Time for diagonalization                   ...    0.038 sec
Threshold for overlap eigenvalues          ... 1.000e-08
Number of eigenvalues below threshold      ... 0
Time for construction of square roots      ...    0.005 sec
Total time needed                          ...    0.043 sec

-------------------
DFT GRID GENERATION
-------------------

General Integration Accuracy     IntAcc      ...  4.340
Radial Grid Type                 RadialGrid  ... Gauss-Chebyshev
Angular Grid (max. acc.)         AngularGrid ... Lebedev-110
Angular grid pruning method      GridPruning ... 3 (G Style)
Weight generation scheme         WeightScheme... Becke
Basis function cutoff            BFCut       ...    1.0000e-11
Integration weight cutoff        WCut        ...    1.0000e-14
Grids for H and He will be reduced by one unit

# of grid points (after initial pruning)     ...  36856 (   0.0 sec)
# of grid points (after weights+screening)   ...  33049 (   0.2 sec)
nearest neighbour list constructed           ...    0.0 sec
Grid point re-assignment to atoms done       ...    0.0 sec
Grid point division into batches done        ...    0.0 sec
Reduced shell lists constructed in    0.3 sec

Total number of grid points                  ...    33049
Total number of batches                      ...      529
Average number of points per batch           ...       62
Average number of grid points per atom       ...     1102
Average number of shells per batch           ...    81.09 (60.07%)
Average number of basis functions per batch  ...   163.25 (57.28%)
Average number of large shells per batch     ...    57.12 (70.43%)
Average number of large basis fcns per batch ...   114.51 (70.14%)
Maximum spatial batch extension              ...  22.36, 21.54, 22.51 au
Average spatial batch extension              ...   3.33,  3.34,  3.73 au

Time for grid setup =    0.510 sec

------------------------------
INITIAL GUESS: MODEL POTENTIAL
------------------------------
Loading Hartree-Fock densities                     ... done
Calculating cut-offs                               ... done
Setting up the integral package                    ... done
Initializing the effective Hamiltonian             ... done
Starting the Coulomb interaction                   ... done (   0.4 sec)
Reading the grid                                   ... done
Mapping shells                                     ... done
Starting the XC term evaluation                    ... done (   0.4 sec)
  promolecular density results
     # of electrons  =    107.997918668
     EX              =    -85.686429990
     EC              =     -3.609319771
     EX+EC           =    -89.295749762
Transforming the Hamiltonian                       ... done (   0.0 sec)
Diagonalizing the Hamiltonian                      ... done (   0.0 sec)
Back transforming the eigenvectors                 ... done (   0.0 sec)
Now organizing SCF variables                       ... done
                      ------------------
                      INITIAL GUESS DONE (   1.4 sec)
                      ------------------
--------------
SCF ITERATIONS
--------------
ITER       Energy         Delta-E        Max-DP      RMS-DP      [F,P]     Damp
               ***  Starting incremental Fock matrix formation  ***
  0   -633.4263808772   0.000000000000 0.06837491  0.00172306  0.2382805 0.7000
  1   -633.5613586690  -0.134977791813 0.04279493  0.00126838  0.1129754 0.7000
                               ***Turning on DIIS***
  2   -633.6305880499  -0.069229380908 0.07560973  0.00254223  0.0476374 0.0000
  3   -633.7471058637  -0.116517813800 0.03586732  0.00073492  0.0567201 0.0000
  4   -633.7621044198  -0.014998556127 0.00950292  0.00017285  0.0103034 0.0000
  5   -633.7626417553  -0.000537335431 0.00413373  0.00007611  0.0076147 0.0000
                      *** Initiating the SOSCF procedure ***
                           *** Shutting down DIIS ***
                      *** Re-Reading the Fockian *** 
                      *** Removing any level shift *** 
ITER      Energy       Delta-E        Grad      Rot      Max-DP    RMS-DP
  6   -633.76275669  -0.0001149366  0.000778  0.000778  0.002424  0.000051
               *** Restarting incremental Fock matrix formation ***
  7   -633.76277142  -0.0000147290  0.000230  0.000538  0.000776  0.000016
  8   -633.76277250  -0.0000010766  0.000189  0.000310  0.000292  0.000006
  9   -633.76277366  -0.0000011579  0.000029  0.000085  0.000195  0.000003
 10   -633.76277367  -0.0000000191  0.000034  0.000046  0.000061  0.000001
 11   -633.76277371  -0.0000000385  0.000006  0.000013  0.000021  0.000000
 12   -633.76277372  -0.0000000024  0.000003  0.000004  0.000011  0.000000
                  ***Gradient check signals convergence***
              ***Rediagonalizing the Fockian in SOSCF/NRSCF***

               *****************************************************
               *                     SUCCESS                       *
               *           SCF CONVERGED AFTER  13 CYCLES          *
               *****************************************************

Setting up the final grid:

General Integration Accuracy     IntAcc      ...  4.670
Radial Grid Type                 RadialGrid  ... Gauss-Chebyshev
Angular Grid (max. acc.)         AngularGrid ... Lebedev-302
Angular grid pruning method      GridPruning ... 3 (G Style)
Weight generation scheme         WeightScheme... Becke
Basis function cutoff            BFCut       ...    1.0000e-11
Integration weight cutoff        WCut        ...    1.0000e-14
Grids for H and He will be reduced by one unit

# of grid points (after initial pruning)     ... 144090 (   0.1 sec)
# of grid points (after weights+screening)   ... 126570 (   0.7 sec)
nearest neighbour list constructed           ...    0.0 sec
Grid point re-assignment to atoms done       ...    0.0 sec
Grid point division into batches done        ...    0.4 sec
Reduced shell lists constructed in    1.4 sec

Total number of grid points                  ...   126570
Total number of batches                      ...     1994
Average number of points per batch           ...       63
Average number of grid points per atom       ...     4219
Average number of shells per batch           ...    74.42 (55.12%)
Average number of basis functions per batch  ...   148.55 (52.12%)
Average number of large shells per batch     ...    51.28 (68.91%)
Average number of large basis fcns per batch ...   101.82 (68.54%)
Maximum spatial batch extension              ...  19.10, 21.18, 19.87 au
Average spatial batch extension              ...   2.23,  2.29,  2.34 au

Final grid set up in    2.2 sec
Final integration                            ... done (   2.3 sec)
Change in XC energy                          ...     0.003134042
Integrated number of electrons               ...   107.999828272
Previous integrated no of electrons          ...   108.000468761

----------------
TOTAL SCF ENERGY
----------------

Total Energy       :         -633.75963967 Eh          -17245.47654 eV

Components:
Nuclear Repulsion  :          979.74461669 Eh           26660.20640 eV
Electronic Energy  :        -1613.50425637 Eh          -43905.68294 eV
One Electron Energy:        -2801.77458208 Eh          -76240.16235 eV
Two Electron Energy:         1188.27032572 Eh           32334.47942 eV

Virial components:
Potential Energy   :        -1261.00608405 Eh          -34313.72002 eV
Kinetic Energy     :          627.24644438 Eh           17068.24348 eV
Virial Ratio       :            2.01038379


DFT components:
N(Alpha)           :       53.999914135899 electrons
N(Beta)            :       53.999914135899 electrons
N(Total)           :      107.999828271799 electrons
E(XC)              :      -62.834180531883 Eh       
DFET-embed. en.    :        0.000000000000 Eh       

---------------
SCF CONVERGENCE
---------------

  Last Energy change         ...   -8.0320e-10  Tolerance :   1.0000e-08
  Last MAX-Density change    ...    2.2326e-06  Tolerance :   1.0000e-07
  Last RMS-Density change    ...    6.1271e-08  Tolerance :   5.0000e-09
  Last Orbital Gradient      ...    8.1430e-07  Tolerance :   1.0000e-05
  Last Orbital Rotation      ...    2.5570e-06  Tolerance :   1.0000e-05

             **** THE GBW FILE WAS UPDATED (072800758.gbw) ****
             **** DENSITY FILE WAS UPDATED (072800758.scfp) ****
             **** ENERGY FILE WAS UPDATED (072800758.en.tmp) ****
             **** THE GBW FILE WAS UPDATED (072800758.gbw) ****
             **** DENSITY FILE WAS UPDATED (072800758.scfp) ****
----------------
ORBITAL ENERGIES
----------------

  NO   OCC          E(Eh)            E(eV) 
   0   2.0000     -19.207126      -522.6525 
   1   2.0000     -14.470204      -393.7543 
   2   2.0000     -10.389675      -282.7174 
   3   2.0000     -10.342864      -281.4436 
   4   2.0000     -10.333287      -281.1830 
   5   2.0000     -10.302966      -280.3580 
   6   2.0000     -10.297181      -280.2006 
   7   2.0000     -10.295488      -280.1545 
   8   2.0000     -10.293723      -280.1064 
   9   2.0000     -10.288606      -279.9672 
  10   2.0000     -10.288506      -279.9645 
  11   2.0000     -10.287335      -279.9326 
  12   2.0000     -10.285436      -279.8810 
  13   2.0000     -10.282229      -279.7937 
  14   2.0000     -10.279678      -279.7243 
  15   2.0000      -1.153066       -31.3765 
  16   2.0000      -1.077943       -29.3323 
  17   2.0000      -0.974619       -26.5207 
  18   2.0000      -0.928951       -25.2780 
  19   2.0000      -0.910932       -24.7877 
  20   2.0000      -0.860087       -23.4042 
  21   2.0000      -0.847636       -23.0654 
  22   2.0000      -0.843236       -22.9456 
  23   2.0000      -0.785392       -21.3716 
  24   2.0000      -0.737751       -20.0752 
  25   2.0000      -0.735657       -20.0182 
  26   2.0000      -0.698402       -19.0045 
  27   2.0000      -0.672963       -18.3123 
  28   2.0000      -0.661738       -18.0068 
  29   2.0000      -0.620489       -16.8844 
  30   2.0000      -0.608542       -16.5593 
  31   2.0000      -0.592421       -16.1206 
  32   2.0000      -0.565618       -15.3912 
  33   2.0000      -0.557833       -15.1794 
  34   2.0000      -0.549101       -14.9418 
  35   2.0000      -0.537615       -14.6292 
  36   2.0000      -0.524492       -14.2722 
  37   2.0000      -0.522821       -14.2267 
  38   2.0000      -0.517573       -14.0839 
  39   2.0000      -0.513093       -13.9620 
  40   2.0000      -0.504902       -13.7391 
  41   2.0000      -0.495340       -13.4789 
  42   2.0000      -0.488939       -13.3047 
  43   2.0000      -0.471469       -12.8293 
  44   2.0000      -0.465753       -12.6738 
  45   2.0000      -0.455697       -12.4001 
  46   2.0000      -0.449759       -12.2386 
  47   2.0000      -0.437030       -11.8922 
  48   2.0000      -0.431729       -11.7479 
  49   2.0000      -0.390477       -10.6254 
  50   2.0000      -0.352266        -9.5857 
  51   2.0000      -0.345139        -9.3917 
  52   2.0000      -0.335893        -9.1401 
  53   2.0000      -0.303130        -8.2486 
  54   0.0000       0.062956         1.7131 
  55   0.0000       0.073936         2.0119 
  56   0.0000       0.088335         2.4037 
  57   0.0000       0.124180         3.3791 
  58   0.0000       0.142287         3.8718 
  59   0.0000       0.157238         4.2787 
  60   0.0000       0.160055         4.3553 
  61   0.0000       0.167360         4.5541 
  62   0.0000       0.181962         4.9514 
  63   0.0000       0.196666         5.3516 
  64   0.0000       0.207252         5.6396 
  65   0.0000       0.209067         5.6890 
  66   0.0000       0.215411         5.8616 
  67   0.0000       0.222162         6.0453 
  68   0.0000       0.232046         6.3143 
  69   0.0000       0.234236         6.3739 
  70   0.0000       0.247281         6.7288 
  71   0.0000       0.255157         6.9432 
  72   0.0000       0.262309         7.1378 
  73   0.0000       0.263754         7.1771 
  74   0.0000       0.277431         7.5493 
  75   0.0000       0.282440         7.6856 
  76   0.0000       0.299325         8.1450 
  77   0.0000       0.329307         8.9609 
  78   0.0000       0.339489         9.2380 
  79   0.0000       0.358269         9.7490 
  80   0.0000       0.365884         9.9562 
  81   0.0000       0.378866        10.3095 
  82   0.0000       0.394098        10.7240 
  83   0.0000       0.398933        10.8555 
  84   0.0000       0.404567        11.0088 
  85   0.0000       0.424293        11.5456 
  86   0.0000       0.447642        12.1810 
  87   0.0000       0.459420        12.5015 
  88   0.0000       0.477523        12.9940 
  89   0.0000       0.494773        13.4635 
  90   0.0000       0.497049        13.5254 
  91   0.0000       0.508579        13.8391 
  92   0.0000       0.509943        13.8763 
  93   0.0000       0.529326        14.4037 
  94   0.0000       0.536711        14.6046 
  95   0.0000       0.552688        15.0394 
  96   0.0000       0.559704        15.2303 
  97   0.0000       0.565648        15.3921 
  98   0.0000       0.568052        15.4575 
  99   0.0000       0.582296        15.8451 
 100   0.0000       0.596045        16.2192 
 101   0.0000       0.601221        16.3601 
 102   0.0000       0.605165        16.4674 
 103   0.0000       0.612464        16.6660 
 104   0.0000       0.634329        17.2610 
 105   0.0000       0.645500        17.5650 
 106   0.0000       0.662982        18.0406 
 107   0.0000       0.664789        18.0898 
 108   0.0000       0.681795        18.5526 
 109   0.0000       0.691792        18.8246 
 110   0.0000       0.701474        19.0881 
 111   0.0000       0.710577        19.3358 
 112   0.0000       0.716547        19.4982 
 113   0.0000       0.720397        19.6030 
 114   0.0000       0.730045        19.8655 
 115   0.0000       0.732044        19.9199 
 116   0.0000       0.739044        20.1104 
 117   0.0000       0.748141        20.3579 
 118   0.0000       0.753446        20.5023 
 119   0.0000       0.757758        20.6196 
 120   0.0000       0.759451        20.6657 
 121   0.0000       0.768429        20.9100 
 122   0.0000       0.773038        21.0354 
 123   0.0000       0.773692        21.0532 
 124   0.0000       0.784149        21.3378 
 125   0.0000       0.787149        21.4194 
 126   0.0000       0.793363        21.5885 
 127   0.0000       0.794332        21.6149 
 128   0.0000       0.802563        21.8388 
 129   0.0000       0.803912        21.8756 
 130   0.0000       0.816131        22.2080 
 131   0.0000       0.818480        22.2720 
 132   0.0000       0.821567        22.3560 
 133   0.0000       0.847593        23.0642 
 134   0.0000       0.853385        23.2218 
 135   0.0000       0.857971        23.3466 
 136   0.0000       0.860834        23.4245 
 137   0.0000       0.870916        23.6988 
 138   0.0000       0.898796        24.4575 
 139   0.0000       0.916195        24.9309 
 140   0.0000       0.930910        25.3313 
 141   0.0000       0.948816        25.8186 
 142   0.0000       0.969265        26.3750 
 143   0.0000       0.991174        26.9712 
 144   0.0000       0.992450        27.0059 
 145   0.0000       1.014271        27.5997 
 146   0.0000       1.033903        28.1339 
 147   0.0000       1.049781        28.5660 
 148   0.0000       1.080020        29.3888 
 149   0.0000       1.100347        29.9420 
 150   0.0000       1.117003        30.3952 
 151   0.0000       1.153747        31.3951 
 152   0.0000       1.171220        31.8705 
 153   0.0000       1.181792        32.1582 
 154   0.0000       1.217831        33.1389 
 155   0.0000       1.235398        33.6169 
 156   0.0000       1.250809        34.0363 
 157   0.0000       1.278570        34.7917 
 158   0.0000       1.295545        35.2536 
 159   0.0000       1.299171        35.3522 
 160   0.0000       1.321511        35.9601 
 161   0.0000       1.330771        36.2121 
 162   0.0000       1.360849        37.0306 
 163   0.0000       1.367774        37.2190 
 164   0.0000       1.379508        37.5383 
 165   0.0000       1.395821        37.9822 
 166   0.0000       1.406687        38.2779 
 167   0.0000       1.429090        38.8875 
 168   0.0000       1.435219        39.0543 
 169   0.0000       1.452669        39.5291 
 170   0.0000       1.477445        40.2033 
 171   0.0000       1.485625        40.4259 
 172   0.0000       1.513875        41.1946 
 173   0.0000       1.574725        42.8504 
 174   0.0000       1.605325        43.6831 
 175   0.0000       1.626246        44.2524 
 176   0.0000       1.631539        44.3964 
 177   0.0000       1.646699        44.8090 
 178   0.0000       1.663783        45.2738 
 179   0.0000       1.697714        46.1971 
 180   0.0000       1.711060        46.5603 
 181   0.0000       1.754860        47.7522 
 182   0.0000       1.760256        47.8990 
 183   0.0000       1.780085        48.4386 
 184   0.0000       1.792101        48.7656 
 185   0.0000       1.806083        49.1460 
 186   0.0000       1.809958        49.2514 
 187   0.0000       1.823172        49.6110 
 188   0.0000       1.829987        49.7965 
 189   0.0000       1.838471        50.0273 
 190   0.0000       1.854372        50.4600 
 191   0.0000       1.858974        50.5852 
 192   0.0000       1.872252        50.9466 
 193   0.0000       1.874279        51.0017 
 194   0.0000       1.884304        51.2745 
 195   0.0000       1.886051        51.3221 
 196   0.0000       1.889057        51.4038 
 197   0.0000       1.899222        51.6805 
 198   0.0000       1.905715        51.8572 
 199   0.0000       1.916488        52.1503 
 200   0.0000       1.919980        52.2453 
 201   0.0000       1.926806        52.4311 
 202   0.0000       1.940385        52.8006 
 203   0.0000       1.958265        53.2871 
 204   0.0000       1.961564        53.3769 
 205   0.0000       1.987174        54.0737 
 206   0.0000       1.988620        54.1131 
 207   0.0000       1.999875        54.4194 
 208   0.0000       2.005057        54.5604 
 209   0.0000       2.032644        55.3111 
 210   0.0000       2.041036        55.5394 
 211   0.0000       2.056860        55.9700 
 212   0.0000       2.062643        56.1274 
 213   0.0000       2.082771        56.6751 
 214   0.0000       2.088313        56.8259 
 215   0.0000       2.101461        57.1837 
 216   0.0000       2.117517        57.6206 
 217   0.0000       2.130142        57.9641 
 218   0.0000       2.142523        58.3010 
 219   0.0000       2.150644        58.5220 
 220   0.0000       2.166734        58.9598 
 221   0.0000       2.196151        59.7603 
 222   0.0000       2.203276        59.9542 
 223   0.0000       2.244087        61.0647 
 224   0.0000       2.248471        61.1840 
 225   0.0000       2.252085        61.2824 
 226   0.0000       2.259898        61.4950 
 227   0.0000       2.292529        62.3829 
 228   0.0000       2.301252        62.6203 
 229   0.0000       2.320994        63.1574 
 230   0.0000       2.353437        64.0403 
 231   0.0000       2.367675        64.4277 
 232   0.0000       2.379763        64.7567 
 233   0.0000       2.385702        64.9183 
 234   0.0000       2.403975        65.4155 
 235   0.0000       2.421595        65.8950 
 236   0.0000       2.431737        66.1709 
 237   0.0000       2.440838        66.4186 
 238   0.0000       2.452760        66.7430 
 239   0.0000       2.467597        67.1467 
 240   0.0000       2.483545        67.5807 
 241   0.0000       2.515341        68.4459 
 242   0.0000       2.539841        69.1126 
 243   0.0000       2.553327        69.4795 
 244   0.0000       2.574611        70.0587 
 245   0.0000       2.596579        70.6565 
 246   0.0000       2.611424        71.0605 
 247   0.0000       2.656696        72.2924 
 248   0.0000       2.667508        72.5866 
 249   0.0000       2.696607        73.3784 
 250   0.0000       2.720789        74.0364 
 251   0.0000       2.724148        74.1278 
 252   0.0000       2.745864        74.7188 
 253   0.0000       2.762472        75.1707 
 254   0.0000       2.772795        75.4516 
 255   0.0000       2.791643        75.9645 
 256   0.0000       2.800574        76.2075 
 257   0.0000       2.828304        76.9621 
 258   0.0000       2.839584        77.2690 
 259   0.0000       2.859129        77.8009 
 260   0.0000       2.870376        78.1069 
 261   0.0000       2.876404        78.2709 
 262   0.0000       2.887370        78.5693 
 263   0.0000       2.909964        79.1841 
 264   0.0000       2.953095        80.3578 
 265   0.0000       2.984201        81.2042 
 266   0.0000       2.998129        81.5832 
 267   0.0000       3.020267        82.1857 
 268   0.0000       3.035278        82.5941 
 269   0.0000       3.037627        82.6580 
 270   0.0000       3.050484        83.0079 
 271   0.0000       3.081470        83.8510 
 272   0.0000       3.105081        84.4936 
 273   0.0000       3.136691        85.3537 
 274   0.0000       3.157520        85.9205 
 275   0.0000       3.178167        86.4823 
 276   0.0000       3.253599        88.5349 
 277   0.0000       3.282950        89.3336 
 278   0.0000       3.319952        90.3405 
 279   0.0000       3.351754        91.2059 
 280   0.0000       3.395853        92.4058 
 281   0.0000       3.406461        92.6945 
 282   0.0000       3.663358        99.6851 
 283   0.0000       3.775168       102.7275 
 284   0.0000       3.832264       104.2812 

                    ********************************
                    * MULLIKEN POPULATION ANALYSIS *
                    ********************************

-----------------------
MULLIKEN ATOMIC CHARGES
-----------------------
   0 C :    0.021565
   1 C :   -0.110198
   2 C :   -0.083539
   3 C :    0.051266
   4 N :   -0.291458
   5 C :    0.137418
   6 O :   -0.246659
   7 C :   -0.018808
   8 C :    0.023759
   9 H :    0.033978
  10 H :    0.045645
  11 H :    0.060514
  12 H :    0.059509
  13 C :    0.162963
  14 C :   -0.054166
  15 C :   -0.011388
  16 C :   -0.002106
  17 C :   -0.014505
  18 C :   -0.040564
  19 H :    0.024146
  20 H :    0.015074
  21 H :    0.008890
  22 H :    0.007698
  23 H :   -0.001537
  24 H :    0.041518
  25 H :    0.015615
  26 H :    0.040895
  27 H :    0.029402
  28 H :    0.046176
  29 H :    0.048900
Sum of atomic charges:    0.0000000

--------------------------------
MULLIKEN REDUCED ORBITAL CHARGES
--------------------------------
  0 C s       :     2.956648  s :     2.956648
      pz      :     1.014483  p :     2.993116
      px      :     1.009454
      py      :     0.969179
      dz2     :     0.002679  d :     0.028671
      dxz     :     0.008127
      dyz     :     0.006736
      dx2y2   :     0.003470
      dxy     :     0.007660
  1 C s       :     3.157043  s :     3.157043
      pz      :     0.978569  p :     2.915782
      px      :     0.967328
      py      :     0.969884
      dz2     :     0.008374  d :     0.037372
      dxz     :     0.009368
      dyz     :     0.011585
      dx2y2   :     0.003251
      dxy     :     0.004794
  2 C s       :     3.156954  s :     3.156954
      pz      :     0.950122  p :     2.892473
      px      :     1.009264
      py      :     0.933088
      dz2     :     0.007620  d :     0.034112
      dxz     :     0.008948
      dyz     :     0.010780
      dx2y2   :     0.002809
      dxy     :     0.003954
  3 C s       :     3.046855  s :     3.046855
      pz      :     0.964678  p :     2.843927
      px      :     0.936976
      py      :     0.942274
      dz2     :     0.010381  d :     0.057952
      dxz     :     0.012650
      dyz     :     0.010138
      dx2y2   :     0.008949
      dxy     :     0.015835
  4 N s       :     3.390738  s :     3.390738
      pz      :     1.406073  p :     3.874095
      px      :     1.142582
      py      :     1.325441
      dz2     :     0.003913  d :     0.026624
      dxz     :     0.006469
      dyz     :     0.003819
      dx2y2   :     0.005931
      dxy     :     0.006493
  5 C s       :     3.079779  s :     3.079779
      pz      :     0.838737  p :     2.660229
      px      :     0.977977
      py      :     0.843514
      dz2     :     0.027389  d :     0.122574
      dxz     :     0.025819
      dyz     :     0.021652
      dx2y2   :     0.029058
      dxy     :     0.018656
  6 O s       :     3.727284  s :     3.727284
      pz      :     1.370103  p :     4.500811
      px      :     1.651106
      py      :     1.479601
      dz2     :     0.005178  d :     0.018564
      dxz     :     0.003588
      dyz     :     0.004789
      dx2y2   :     0.002163
      dxy     :     0.002845
  7 C s       :     2.989447  s :     2.989447
      pz      :     0.969339  p :     2.996933
      px      :     0.998245
      py      :     1.029348
      dz2     :     0.007041  d :     0.032428
      dxz     :     0.006841
      dyz     :     0.006524
      dx2y2   :     0.008064
      dxy     :     0.003958
  8 C s       :     3.000738  s :     3.000738
      pz      :     1.003153  p :     2.940661
      px      :     0.980230
      py      :     0.957278
      dz2     :     0.007570  d :     0.034842
      dxz     :     0.004934
      dyz     :     0.009369
      dx2y2   :     0.004708
      dxy     :     0.008260
  9 H s       :     0.943255  s :     0.943255
      pz      :     0.004429  p :     0.022767
      px      :     0.012489
      py      :     0.005849
 10 H s       :     0.932137  s :     0.932137
      pz      :     0.009578  p :     0.022218
      px      :     0.004854
      py      :     0.007786
 11 H s       :     0.916772  s :     0.916772
      pz      :     0.003970  p :     0.022714
      px      :     0.004694
      py      :     0.014050
 12 H s       :     0.916850  s :     0.916850
      pz      :     0.008831  p :     0.023642
      px      :     0.008074
      py      :     0.006737
 13 C s       :     2.955247  s :     2.955247
      pz      :     1.009776  p :     2.823134
      px      :     0.850212
      py      :     0.963146
      dz2     :     0.006214  d :     0.058655
      dxz     :     0.010326
      dyz     :     0.007460
      dx2y2   :     0.018307
      dxy     :     0.016349
 14 C s       :     3.217374  s :     3.217374
      pz      :     1.005683  p :     2.802770
      px      :     0.866455
      py      :     0.930633
      dz2     :     0.002994  d :     0.034022
      dxz     :     0.005842
      dyz     :     0.004960
      dx2y2   :     0.009694
      dxy     :     0.010532
 15 C s       :     3.144128  s :     3.144128
      pz      :     0.974717  p :     2.830744
      px      :     0.959045
      py      :     0.896981
      dz2     :     0.003428  d :     0.036517
      dxz     :     0.007811
      dyz     :     0.003612
      dx2y2   :     0.011496
      dxy     :     0.010170
 16 C s       :     3.140184  s :     3.140184
      pz      :     0.998837  p :     2.826027
      px      :     0.869857
      py      :     0.957333
      dz2     :     0.004219  d :     0.035895
      dxz     :     0.003992
      dyz     :     0.006152
      dx2y2   :     0.011129
      dxy     :     0.010403
 17 C s       :     3.144370  s :     3.144370
      pz      :     0.964876  p :     2.833392
      px      :     0.936051
      py      :     0.932465
      dz2     :     0.003049  d :     0.036744
      dxz     :     0.006326
      dyz     :     0.005336
      dx2y2   :     0.010057
      dxy     :     0.011976
 18 C s       :     3.233438  s :     3.233438
      pz      :     0.984527  p :     2.773465
      px      :     0.918045
      py      :     0.870892
      dz2     :     0.003335  d :     0.033661
      dxz     :     0.006994
      dyz     :     0.003403
      dx2y2   :     0.009180
      dxy     :     0.010750
 19 H s       :     0.950024  s :     0.950024
      pz      :     0.006116  p :     0.025830
      px      :     0.005087
      py      :     0.014628
 20 H s       :     0.961859  s :     0.961859
      pz      :     0.005999  p :     0.023067
      px      :     0.009049
      py      :     0.008019
 21 H s       :     0.967910  s :     0.967910
      pz      :     0.004646  p :     0.023201
      px      :     0.014008
      py      :     0.004546
 22 H s       :     0.968706  s :     0.968706
      pz      :     0.005621  p :     0.023596
      px      :     0.004181
      py      :     0.013794
 23 H s       :     0.977259  s :     0.977259
      pz      :     0.006169  p :     0.024278
      px      :     0.009669
      py      :     0.008440
 24 H s       :     0.937919  s :     0.937919
      pz      :     0.011727  p :     0.020562
      px      :     0.005107
      py      :     0.003729
 25 H s       :     0.961015  s :     0.961015
      pz      :     0.008294  p :     0.023370
      px      :     0.007401
      py      :     0.007676
 26 H s       :     0.935224  s :     0.935224
      pz      :     0.008586  p :     0.023881
      px      :     0.007472
      py      :     0.007823
 27 H s       :     0.946759  s :     0.946759
      pz      :     0.009424  p :     0.023838
      px      :     0.007272
      py      :     0.007143
 28 H s       :     0.929709  s :     0.929709
      pz      :     0.010043  p :     0.024116
      px      :     0.008969
      py      :     0.005104
 29 H s       :     0.926884  s :     0.926884
      pz      :     0.006647  p :     0.024216
      px      :     0.009752
      py      :     0.007817


                     *******************************
                     * LOEWDIN POPULATION ANALYSIS *
                     *******************************

----------------------
LOEWDIN ATOMIC CHARGES
----------------------
   0 C :   -0.057561
   1 C :   -0.029962
   2 C :   -0.063730
   3 C :    0.035448
   4 N :   -0.024046
   5 C :    0.078483
   6 O :   -0.200919
   7 C :   -0.055173
   8 C :   -0.023205
   9 H :    0.029585
  10 H :    0.030979
  11 H :    0.042496
  12 H :    0.045421
  13 C :    0.028566
  14 C :   -0.053065
  15 C :   -0.024984
  16 C :   -0.043086
  17 C :   -0.021571
  18 C :   -0.032975
  19 H :    0.034306
  20 H :    0.031747
  21 H :    0.028061
  22 H :    0.029024
  23 H :    0.029442
  24 H :    0.028964
  25 H :    0.024362
  26 H :    0.028830
  27 H :    0.028992
  28 H :    0.037221
  29 H :    0.038349

-------------------------------
LOEWDIN REDUCED ORBITAL CHARGES
-------------------------------
  0 C s       :     2.822162  s :     2.822162
      pz      :     1.058428  p :     3.160622
      px      :     1.062030
      py      :     1.040163
      dz2     :     0.006391  d :     0.074777
      dxz     :     0.021648
      dyz     :     0.017942
      dx2y2   :     0.008451
      dxy     :     0.020345
  1 C s       :     2.863830  s :     2.863830
      pz      :     1.081167  p :     3.073422
      px      :     0.976157
      py      :     1.016098
      dz2     :     0.023531  d :     0.092710
      dxz     :     0.021220
      dyz     :     0.030654
      dx2y2   :     0.006922
      dxy     :     0.010383
  2 C s       :     2.870102  s :     2.870102
      pz      :     1.082663  p :     3.103593
      px      :     1.010349
      py      :     1.010582
      dz2     :     0.022161  d :     0.090035
      dxz     :     0.020850
      dyz     :     0.030190
      dx2y2   :     0.007302
      dxy     :     0.009533
  3 C s       :     2.828652  s :     2.828652
      pz      :     0.999370  p :     2.999315
      px      :     0.977341
      py      :     1.022604
      dz2     :     0.025333  d :     0.136585
      dxz     :     0.030343
      dyz     :     0.022991
      dx2y2   :     0.018206
      dxy     :     0.039712
  4 N s       :     3.054625  s :     3.054625
      pz      :     1.388184  p :     3.903051
      px      :     1.186486
      py      :     1.328380
      dz2     :     0.008568  d :     0.066370
      dxz     :     0.015763
      dyz     :     0.009598
      dx2y2   :     0.014934
      dxy     :     0.017507
  5 C s       :     2.836592  s :     2.836592
      pz      :     0.911634  p :     2.807294
      px      :     0.996078
      py      :     0.899582
      dz2     :     0.055062  d :     0.277631
      dxz     :     0.060450
      dyz     :     0.054677
      dx2y2   :     0.066155
      dxy     :     0.041287
  6 O s       :     3.535110  s :     3.535110
      pz      :     1.438588  p :     4.634343
      px      :     1.676498
      py      :     1.519257
      dz2     :     0.006827  d :     0.031467
      dxz     :     0.006977
      dyz     :     0.009522
      dx2y2   :     0.003397
      dxy     :     0.004744
  7 C s       :     2.837490  s :     2.837490
      pz      :     1.030319  p :     3.133010
      px      :     1.038868
      py      :     1.063823
      dz2     :     0.017855  d :     0.084674
      dxz     :     0.017940
      dyz     :     0.016605
      dx2y2   :     0.022776
      dxy     :     0.009498
  8 C s       :     2.834199  s :     2.834199
      pz      :     1.040011  p :     3.100789
      px      :     1.036786
      py      :     1.023992
      dz2     :     0.019640  d :     0.088216
      dxz     :     0.009854
      dyz     :     0.024782
      dx2y2   :     0.011199
      dxy     :     0.022741
  9 H s       :     0.902604  s :     0.902604
      pz      :     0.014398  p :     0.067811
      px      :     0.035751
      py      :     0.017661
 10 H s       :     0.901107  s :     0.901107
      pz      :     0.029061  p :     0.067915
      px      :     0.014590
      py      :     0.024263
 11 H s       :     0.888730  s :     0.888730
      pz      :     0.013073  p :     0.068774
      px      :     0.015711
      py      :     0.039989
 12 H s       :     0.884507  s :     0.884507
      pz      :     0.026571  p :     0.070072
      px      :     0.024433
      py      :     0.019068
 13 C s       :     2.822578  s :     2.822578
      pz      :     1.000606  p :     3.004003
      px      :     0.937791
      py      :     1.065606
      dz2     :     0.013487  d :     0.144852
      dxz     :     0.023082
      dyz     :     0.016934
      dx2y2   :     0.047982
      dxy     :     0.043367
 14 C s       :     2.848941  s :     2.848941
      pz      :     1.018525  p :     3.113674
      px      :     1.060452
      py      :     1.034698
      dz2     :     0.006774  d :     0.090450
      dxz     :     0.013093
      dyz     :     0.011513
      dx2y2   :     0.028022
      dxy     :     0.031048
 15 C s       :     2.848806  s :     2.848806
      pz      :     0.980205  p :     3.081321
      px      :     1.066453
      py      :     1.034663
      dz2     :     0.007679  d :     0.094856
      dxz     :     0.018036
      dyz     :     0.008101
      dx2y2   :     0.032320
      dxy     :     0.028720
 16 C s       :     2.849855  s :     2.849855
      pz      :     0.998380  p :     3.099726
      px      :     1.042380
      py      :     1.058966
      dz2     :     0.009361  d :     0.093504
      dxz     :     0.008903
      dyz     :     0.014901
      dx2y2   :     0.030944
      dxy     :     0.029395
 17 C s       :     2.849793  s :     2.849793
      pz      :     0.972067  p :     3.076775
      px      :     1.056558
      py      :     1.048149
      dz2     :     0.006867  d :     0.095003
      dxz     :     0.014045
      dyz     :     0.012254
      dx2y2   :     0.028384
      dxy     :     0.033452
 18 C s       :     2.851004  s :     2.851004
      pz      :     0.992161  p :     3.092327
      px      :     1.055523
      py      :     1.044643
      dz2     :     0.007456  d :     0.089645
      dxz     :     0.016344
      dyz     :     0.007622
      dx2y2   :     0.027673
      dxy     :     0.030551
 19 H s       :     0.888419  s :     0.888419
      pz      :     0.018474  p :     0.077275
      px      :     0.016795
      py      :     0.042006
 20 H s       :     0.899872  s :     0.899872
      pz      :     0.018082  p :     0.068381
      px      :     0.026298
      py      :     0.024002
 21 H s       :     0.902811  s :     0.902811
      pz      :     0.014796  p :     0.069128
      px      :     0.039303
      py      :     0.015029
 22 H s       :     0.902462  s :     0.902462
      pz      :     0.017041  p :     0.068514
      px      :     0.013531
      py      :     0.037942
 23 H s       :     0.897499  s :     0.897499
      pz      :     0.019398  p :     0.073060
      px      :     0.028096
      py      :     0.025565
 24 H s       :     0.904143  s :     0.904143
      pz      :     0.035315  p :     0.066893
      px      :     0.017306
      py      :     0.014271
 25 H s       :     0.905118  s :     0.905118
      pz      :     0.023181  p :     0.070520
      px      :     0.023035
      py      :     0.024304
 26 H s       :     0.900105  s :     0.900105
      pz      :     0.024006  p :     0.071064
      px      :     0.022332
      py      :     0.024726
 27 H s       :     0.904955  s :     0.904955
      pz      :     0.025877  p :     0.066053
      px      :     0.019701
      py      :     0.020475
 28 H s       :     0.896147  s :     0.896147
      pz      :     0.027782  p :     0.066631
      px      :     0.024071
      py      :     0.014779
 29 H s       :     0.894925  s :     0.894925
      pz      :     0.017584  p :     0.066726
      px      :     0.027034
      py      :     0.022108


                      *****************************
                      * MAYER POPULATION ANALYSIS *
                      *****************************

  NA   - Mulliken gross atomic population
  ZA   - Total nuclear charge
  QA   - Mulliken gross atomic charge
  VA   - Mayer's total valence
  BVA  - Mayer's bonded valence
  FA   - Mayer's free valence

  ATOM       NA         ZA         QA         VA         BVA        FA
  0 C      5.9784     6.0000     0.0216     3.9434     3.9434     0.0000
  1 C      6.1102     6.0000    -0.1102     4.0350     4.0350     0.0000
  2 C      6.0835     6.0000    -0.0835     3.9267     3.9267    -0.0000
  3 C      5.9487     6.0000     0.0513     3.9738     3.9738     0.0000
  4 N      7.2915     7.0000    -0.2915     3.1027     3.1027     0.0000
  5 C      5.8626     6.0000     0.1374     4.2530     4.2530     0.0000
  6 O      8.2467     8.0000    -0.2467     2.2781     2.2781     0.0000
  7 C      6.0188     6.0000    -0.0188     3.9071     3.9071     0.0000
  8 C      5.9762     6.0000     0.0238     4.0124     4.0124     0.0000
  9 H      0.9660     1.0000     0.0340     0.9914     0.9914     0.0000
 10 H      0.9544     1.0000     0.0456     0.9780     0.9780     0.0000
 11 H      0.9395     1.0000     0.0605     0.9986     0.9986     0.0000
 12 H      0.9405     1.0000     0.0595     0.9980     0.9980     0.0000
 13 C      5.8370     6.0000     0.1630     3.8807     3.8807     0.0000
 14 C      6.0542     6.0000    -0.0542     3.8800     3.8800    -0.0000
 15 C      6.0114     6.0000    -0.0114     3.8764     3.8764     0.0000
 16 C      6.0021     6.0000    -0.0021     3.8351     3.8351     0.0000
 17 C      6.0145     6.0000    -0.0145     3.8659     3.8659    -0.0000
 18 C      6.0406     6.0000    -0.0406     3.8938     3.8938    -0.0000
 19 H      0.9759     1.0000     0.0241     1.0340     1.0340    -0.0000
 20 H      0.9849     1.0000     0.0151     0.9847     0.9847     0.0000
 21 H      0.9911     1.0000     0.0089     0.9846     0.9846     0.0000
 22 H      0.9923     1.0000     0.0077     0.9840     0.9840     0.0000
 23 H      1.0015     1.0000    -0.0015     0.9989     0.9989     0.0000
 24 H      0.9585     1.0000     0.0415     0.9813     0.9813    -0.0000
 25 H      0.9844     1.0000     0.0156     0.9948     0.9948     0.0000
 26 H      0.9591     1.0000     0.0409     0.9958     0.9958     0.0000
 27 H      0.9706     1.0000     0.0294     0.9980     0.9980    -0.0000
 28 H      0.9538     1.0000     0.0462     0.9878     0.9878    -0.0000
 29 H      0.9511     1.0000     0.0489     0.9879     0.9879    -0.0000

  Mayer bond orders larger than 0.100000
B(  0-C ,  1-C ) :   1.0635 B(  0-C , 27-H ) :   0.9758 B(  0-C , 28-H ) :   0.9590 
B(  0-C , 29-H ) :   0.9583 B(  1-C ,  2-C ) :   1.9450 B(  1-C , 26-H ) :   0.9506 
B(  2-C ,  3-C ) :   0.9961 B(  2-C , 25-H ) :   0.9682 B(  3-C ,  4-N ) :   0.9529 
B(  3-C ,  8-C ) :   1.0377 B(  3-C , 24-H ) :   0.9343 B(  4-N ,  5-C ) :   1.1072 
B(  4-N , 13-C ) :   0.9737 B(  5-C ,  6-O ) :   2.0871 B(  5-C ,  7-C ) :   0.9674 
B(  7-C ,  8-C ) :   1.0656 B(  7-C , 11-H ) :   0.9463 B(  7-C , 12-H ) :   0.9233 
B(  8-C ,  9-H ) :   0.9495 B(  8-C , 10-H ) :   0.9482 B( 13-C , 14-C ) :   1.3761 
B( 13-C , 18-C ) :   1.3976 B( 14-C , 15-C ) :   1.3920 B( 14-C , 23-H ) :   0.9900 
B( 15-C , 16-C ) :   1.3964 B( 15-C , 22-H ) :   0.9889 B( 16-C , 17-C ) :   1.3817 
B( 16-C , 21-H ) :   0.9964 B( 17-C , 18-C ) :   1.3991 B( 17-C , 20-H ) :   0.9895 
B( 18-C , 19-H ) :   0.9881 

-------
TIMINGS
-------

Total SCF time: 0 days 0 hours 5 min 35 sec 

Total time                  ....     335.954 sec
Sum of individual times     ....     335.687 sec  ( 99.9%)

Fock matrix formation       ....     331.903 sec  ( 98.8%)
  XC integration            ....      10.280 sec  (  3.1% of F)
    Basis function eval.    ....       3.070 sec  ( 29.9% of XC)
    Density eval.           ....       2.040 sec  ( 19.8% of XC)
    XC-Functional eval.     ....       2.161 sec  ( 21.0% of XC)
    XC-Potential eval.      ....       2.746 sec  ( 26.7% of XC)
Diagonalization             ....       0.077 sec  (  0.0%)
Density matrix formation    ....       0.021 sec  (  0.0%)
Population analysis         ....       0.009 sec  (  0.0%)
Initial guess               ....       0.939 sec  (  0.3%)
Orbital Transformation      ....       0.000 sec  (  0.0%)
Orbital Orthonormalization  ....       0.000 sec  (  0.0%)
DIIS solution               ....       0.028 sec  (  0.0%)
SOSCF solution              ....       0.048 sec  (  0.0%)
Grid generation             ....       2.661 sec  (  0.8%)


-------------------------------------------------------------------------------
                          DFT DISPERSION CORRECTION                            
                                                                               
                              DFTD3 V3.1  Rev 1                                
                              USING zero damping                               
-------------------------------------------------------------------------------
The omegaB97X-D3 functional is recognized. Fit by Chai et al.
Active option DFTDOPT                   ...         3   

molecular C6(AA) [au] = 9205.892120 


            DFT-D V3
 parameters
 s6 scaling factor         :     1.0000 
 rs6 scaling factor        :     1.2810 
 s8 scaling factor         :     1.0000 
 rs8 scaling factor        :     1.0940 
 Damping factor alpha6     :    14.0000 
 Damping factor alpha8     :    16.0000 
 ad hoc parameters k1-k3   :    16.0000     1.3333    -4.0000 

 Edisp/kcal,au: -8.030894906263  -0.012798044303 
 E6   /kcal   :  -3.617723912 
 E8   /kcal   :  -4.413170994 
 % E8         :  54.952418696 

-------------------------   ----------------
Dispersion correction           -0.012798044
-------------------------   ----------------


-------------------------   --------------------
FINAL SINGLE POINT ENERGY      -633.772437718664
-------------------------   --------------------

------------------------------------------------------------------------------
                         ORCA SCF GRADIENT CALCULATION
------------------------------------------------------------------------------

Gradient of the Kohn-Sham DFT energy:
Kohn-Sham wavefunction type      ... RKS
Hartree-Fock exchange scaling    ...    0.196
Number of operators              ...    1
Number of atoms                  ...   30
Basis set dimensions             ...  285
Integral neglect threshold       ... 2.5e-11
Integral primitive cutoff        ... 2.5e-12

Nuclear repulsion gradient       ... done
One Electron Gradient            ... done
[...]
      px      :     0.846281
      py      :     0.973857
      dz2     :     0.007308  d :     0.056879
      dxz     :     0.010844
      dyz     :     0.007278
      dx2y2   :     0.016833
      dxy     :     0.014615
 14 C s       :     3.212350  s :     3.212350
      pz      :     0.994485  p :     2.816977
      px      :     0.878232
      py      :     0.944261
      dz2     :     0.003239  d :     0.033018
      dxz     :     0.006306
      dyz     :     0.004899
      dx2y2   :     0.009031
      dxy     :     0.009543
 15 C s       :     3.149792  s :     3.149792
      pz      :     0.966592  p :     2.834915
      px      :     0.957954
      py      :     0.910368
      dz2     :     0.003991  d :     0.035669
      dxz     :     0.007792
      dyz     :     0.004087
      dx2y2   :     0.010318
      dxy     :     0.009481
 16 C s       :     3.147656  s :     3.147656
      pz      :     0.995176  p :     2.828804
      px      :     0.873752
      py      :     0.959876
      dz2     :     0.005131  d :     0.034933
      dxz     :     0.004607
      dyz     :     0.005900
      dx2y2   :     0.009873
      dxy     :     0.009422
 17 C s       :     3.147268  s :     3.147268
      pz      :     0.957995  p :     2.834879
      px      :     0.939830
      py      :     0.937054
      dz2     :     0.003426  d :     0.035694
      dxz     :     0.006847
      dyz     :     0.005301
      dx2y2   :     0.009457
      dxy     :     0.010662
 18 C s       :     3.238753  s :     3.238753
      pz      :     0.978192  p :     2.784049
      px      :     0.912369
      py      :     0.893489
      dz2     :     0.003769  d :     0.032629
      dxz     :     0.007206
      dyz     :     0.003622
      dx2y2   :     0.008140
      dxy     :     0.009892
 19 H s       :     0.936157  s :     0.936157
      pz      :     0.006535  p :     0.025947
      px      :     0.005353
      py      :     0.014059
 20 H s       :     0.955237  s :     0.955237
      pz      :     0.006823  p :     0.022714
      px      :     0.008627
      py      :     0.007264
 21 H s       :     0.960651  s :     0.960651
      pz      :     0.004347  p :     0.022602
      px      :     0.013661
      py      :     0.004594
 22 H s       :     0.960817  s :     0.960817
      pz      :     0.006038  p :     0.022852
      px      :     0.004032
      py      :     0.012783
 23 H s       :     0.968704  s :     0.968704
      pz      :     0.006968  p :     0.023922
      px      :     0.009141
      py      :     0.007813
 24 H s       :     0.932591  s :     0.932591
      pz      :     0.011683  p :     0.020606
      px      :     0.005048
      py      :     0.003874
 25 H s       :     0.957415  s :     0.957415
      pz      :     0.007404  p :     0.022840
      px      :     0.008244
      py      :     0.007191
 26 H s       :     0.930482  s :     0.930482
      pz      :     0.007428  p :     0.023454
      px      :     0.008597
      py      :     0.007428
 27 H s       :     0.943074  s :     0.943074
      pz      :     0.008538  p :     0.023305
      px      :     0.008068
      py      :     0.006700
 28 H s       :     0.926000  s :     0.926000
      pz      :     0.010754  p :     0.023437
      px      :     0.007801
      py      :     0.004881
 29 H s       :     0.923030  s :     0.923030
      pz      :     0.005875  p :     0.023435
      px      :     0.009529
      py      :     0.008031


                     *******************************
                     * LOEWDIN POPULATION ANALYSIS *
                     *******************************

----------------------
LOEWDIN ATOMIC CHARGES
----------------------
   0 C :   -0.063474
   1 C :   -0.031925
   2 C :   -0.067494
   3 C :    0.035496
   4 N :   -0.035978
   5 C :    0.088832
   6 O :   -0.194265
   7 C :   -0.058649
   8 C :   -0.026915
   9 H :    0.031126
  10 H :    0.033525
  11 H :    0.044576
  12 H :    0.049155
  13 C :    0.032216
  14 C :   -0.058537
  15 C :   -0.026796
  16 C :   -0.048192
  17 C :   -0.023084
  18 C :   -0.042101
  19 H :    0.036969
  20 H :    0.033653
  21 H :    0.030889
  22 H :    0.031920
  23 H :    0.030949
  24 H :    0.030036
  25 H :    0.026737
  26 H :    0.031367
  27 H :    0.030616
  28 H :    0.038972
  29 H :    0.040376

-------------------------------
LOEWDIN REDUCED ORBITAL CHARGES
-------------------------------
  0 C s       :     2.832625  s :     2.832625
      pz      :     1.056625  p :     3.158307
      px      :     1.062113
      py      :     1.039569
      dz2     :     0.008273  d :     0.072542
      dxz     :     0.019773
      dyz     :     0.016045
      dx2y2   :     0.007277
      dxy     :     0.021172
  1 C s       :     2.872529  s :     2.872529
      pz      :     1.073015  p :     3.069822
      px      :     0.985360
      py      :     1.011447
      dz2     :     0.022850  d :     0.089574
      dxz     :     0.020450
      dyz     :     0.027550
      dx2y2   :     0.007213
      dxy     :     0.011511
  2 C s       :     2.877882  s :     2.877882
      pz      :     1.076524  p :     3.102517
      px      :     1.014534
      py      :     1.011459
      dz2     :     0.020974  d :     0.087095
      dxz     :     0.020572
      dyz     :     0.027615
      dx2y2   :     0.007705
      dxy     :     0.010228
  3 C s       :     2.832617  s :     2.832617
      pz      :     1.004538  p :     2.997573
      px      :     0.974362
      py      :     1.018673
      dz2     :     0.024114  d :     0.134315
      dxz     :     0.028884
      dyz     :     0.024197
      dx2y2   :     0.017394
      dxy     :     0.039726
  4 N s       :     3.066594  s :     3.066594
      pz      :     1.414320  p :     3.906624
      px      :     1.187220
      py      :     1.305084
      dz2     :     0.007510  d :     0.062760
      dxz     :     0.013667
      dyz     :     0.008921
      dx2y2   :     0.015051
      dxy     :     0.017611
  5 C s       :     2.841758  s :     2.841758
      pz      :     0.891552  p :     2.797428
      px      :     0.997454
      py      :     0.908423
      dz2     :     0.047549  d :     0.271982
      dxz     :     0.052233
      dyz     :     0.052066
      dx2y2   :     0.073734
      dxy     :     0.046400
  6 O s       :     3.534731  s :     3.534731
      pz      :     1.432952  p :     4.628131
      px      :     1.670896
      py      :     1.524282
      dz2     :     0.005774  d :     0.031403
      dxz     :     0.006199
      dyz     :     0.009577
      dx2y2   :     0.004073
      dxy     :     0.005781
  7 C s       :     2.842352  s :     2.842352
      pz      :     1.034256  p :     3.132082
      px      :     1.037105
      py      :     1.060720
      dz2     :     0.017358  d :     0.084215
      dxz     :     0.017420
      dyz     :     0.016809
      dx2y2   :     0.023580
      dxy     :     0.009048
  8 C s       :     2.839847  s :     2.839847
      pz      :     1.039764  p :     3.099849
      px      :     1.037908
      py      :     1.022176
      dz2     :     0.018974  d :     0.087219
      dxz     :     0.009917
      dyz     :     0.024903
      dx2y2   :     0.010900
      dxy     :     0.022526
  9 H s       :     0.902804  s :     0.902804
      pz      :     0.013682  p :     0.066070
      px      :     0.035390
      py      :     0.016997
 10 H s       :     0.900302  s :     0.900302
      pz      :     0.029763  p :     0.066173
      px      :     0.014271
      py      :     0.022139
 11 H s       :     0.888274  s :     0.888274
      pz      :     0.012538  p :     0.067150
      px      :     0.015129
      py      :     0.039483
 12 H s       :     0.882709  s :     0.882709
      pz      :     0.027425  p :     0.068136
      px      :     0.023088
      py      :     0.017622
 13 C s       :     2.830937  s :     2.830937
      pz      :     1.010210  p :     2.997439
      px      :     0.933657
      py      :     1.053573
      dz2     :     0.015661  d :     0.139407
      dxz     :     0.025056
      dyz     :     0.017313
      dx2y2   :     0.043362
      dxy     :     0.038016
 14 C s       :     2.855848  s :     2.855848
      pz      :     1.023921  p :     3.115173
      px      :     1.057462
      py      :     1.033790
      dz2     :     0.007181  d :     0.087516
      dxz     :     0.014877
      dyz     :     0.012109
      dx2y2   :     0.025508
      dxy     :     0.027842
 15 C s       :     2.856671  s :     2.856671
      pz      :     0.989148  p :     3.078053
      px      :     1.062156
      py      :     1.026749
      dz2     :     0.008746  d :     0.092071
      dxz     :     0.018824
      dyz     :     0.009728
      dx2y2   :     0.028700
      dxy     :     0.026073
 16 C s       :     2.857455  s :     2.857455
      pz      :     1.009840  p :     3.100074
      px      :     1.039336
      py      :     1.050898
      dz2     :     0.011151  d :     0.090663
      dxz     :     0.011183
      dyz     :     0.015231
      dx2y2   :     0.026969
      dxy     :     0.026129
 17 C s       :     2.857906  s :     2.857906
      pz      :     0.981086  p :     3.073013
      px      :     1.053162
      py      :     1.038765
      dz2     :     0.007613  d :     0.092165
      dxz     :     0.015964
      dyz     :     0.012871
      dx2y2   :     0.025980
      dxy     :     0.029736
 18 C s       :     2.859376  s :     2.859376
      pz      :     1.002243  p :     3.096305
      px      :     1.050970
      py      :     1.043092
      dz2     :     0.008245  d :     0.086420
      dxz     :     0.017792
      dyz     :     0.008801
      dx2y2   :     0.024123
      dxy     :     0.027460
 19 H s       :     0.883933  s :     0.883933
      pz      :     0.019918  p :     0.079098
      px      :     0.018207
      py      :     0.040972
 20 H s       :     0.899982  s :     0.899982
      pz      :     0.019971  p :     0.066364
      px      :     0.024822
      py      :     0.021572
 21 H s       :     0.902000  s :     0.902000
      pz      :     0.013813  p :     0.067111
      px      :     0.038437
      py      :     0.014860
 22 H s       :     0.901636  s :     0.901636
      pz      :     0.017985  p :     0.066444
      px      :     0.012896
      py      :     0.035563
 23 H s       :     0.898108  s :     0.898108
      pz      :     0.021285  p :     0.070943
      px      :     0.026162
      py      :     0.023496
 24 H s       :     0.903594  s :     0.903594
      pz      :     0.035029  p :     0.066370
      px      :     0.016985
      py      :     0.014357
 25 H s       :     0.905412  s :     0.905412
      pz      :     0.020677  p :     0.067852
      px      :     0.024596
      py      :     0.022578
 26 H s       :     0.899862  s :     0.899862
      pz      :     0.020864  p :     0.068770
      px      :     0.024750
      py      :     0.023157
 27 H s       :     0.905221  s :     0.905221
      pz      :     0.023236  p :     0.064162
      px      :     0.021894
      py      :     0.019032
 28 H s       :     0.896391  s :     0.896391
      pz      :     0.030062  p :     0.064637
      px      :     0.020685
      py      :     0.013890
 29 H s       :     0.894888  s :     0.894888
      pz      :     0.015403  p :     0.064736
      px      :     0.026516
      py      :     0.022817


                      *****************************
                      * MAYER POPULATION ANALYSIS *
                      *****************************

  NA   - Mulliken gross atomic population
  ZA   - Total nuclear charge
  QA   - Mulliken gross atomic charge
  VA   - Mayer's total valence
  BVA  - Mayer's bonded valence
  FA   - Mayer's free valence

  ATOM       NA         ZA         QA         VA         BVA        FA
  0 C      6.0014     6.0000    -0.0014     3.9432     3.9432     0.0000
  1 C      6.1028     6.0000    -0.1028     4.0283     4.0283    -0.0000
  2 C      6.0921     6.0000    -0.0921     3.9352     3.9352    -0.0000
  3 C      5.9356     6.0000     0.0644     3.9603     3.9603    -0.0000
  4 N      7.3173     7.0000    -0.3173     3.1022     3.1022    -0.0000
  5 C      5.8452     6.0000     0.1548     4.2267     4.2267    -0.0000
  6 O      8.2425     8.0000    -0.2425     2.2821     2.2821    -0.0000
  7 C      6.0239     6.0000    -0.0239     3.9046     3.9046    -0.0000
  8 C      5.9980     6.0000     0.0020     4.0113     4.0113     0.0000
  9 H      0.9615     1.0000     0.0385     0.9904     0.9904     0.0000
 10 H      0.9503     1.0000     0.0497     0.9773     0.9773     0.0000
 11 H      0.9354     1.0000     0.0646     0.9986     0.9986     0.0000
 12 H      0.9333     1.0000     0.0667     0.9956     0.9956     0.0000
 13 C      5.8442     6.0000     0.1558     3.8875     3.8875     0.0000
 14 C      6.0623     6.0000    -0.0623     3.8839     3.8839    -0.0000
 15 C      6.0204     6.0000    -0.0204     3.8849     3.8849    -0.0000
 16 C      6.0114     6.0000    -0.0114     3.8366     3.8366    -0.0000
 17 C      6.0178     6.0000    -0.0178     3.8585     3.8585     0.0000
 18 C      6.0554     6.0000    -0.0554     3.8812     3.8812    -0.0000
 19 H      0.9621     1.0000     0.0379     1.0434     1.0434     0.0000
 20 H      0.9780     1.0000     0.0220     0.9847     0.9847    -0.0000
 21 H      0.9833     1.0000     0.0167     0.9847     0.9847    -0.0000
 22 H      0.9837     1.0000     0.0163     0.9839     0.9839     0.0000
 23 H      0.9926     1.0000     0.0074     0.9957     0.9957    -0.0000
 24 H      0.9532     1.0000     0.0468     0.9781     0.9781    -0.0000
 25 H      0.9803     1.0000     0.0197     0.9948     0.9948    -0.0000
 26 H      0.9539     1.0000     0.0461     0.9950     0.9950    -0.0000
 27 H      0.9664     1.0000     0.0336     0.9960     0.9960    -0.0000
 28 H      0.9494     1.0000     0.0506     0.9862     0.9862    -0.0000
 29 H      0.9465     1.0000     0.0535     0.9863     0.9863    -0.0000

  Mayer bond orders larger than 0.100000
B(  0-C ,  1-C ) :   1.0599 B(  0-C , 27-H ) :   0.9759 B(  0-C , 28-H ) :   0.9603 
B(  0-C , 29-H ) :   0.9596 B(  1-C ,  2-C ) :   1.9513 B(  1-C , 26-H ) :   0.9473 
B(  2-C ,  3-C ) :   0.9946 B(  2-C , 25-H ) :   0.9642 B(  3-C ,  4-N ) :   0.9502 
B(  3-C ,  8-C ) :   1.0358 B(  3-C , 24-H ) :   0.9305 B(  4-N ,  5-C ) :   1.0891 
B(  4-N , 13-C ) :   0.9808 B(  5-C ,  6-O ) :   2.0777 B(  5-C ,  7-C ) :   0.9720 
B(  7-C ,  8-C ) :   1.0618 B(  7-C , 11-H ) :   0.9471 B(  7-C , 12-H ) :   0.9253 
B(  8-C ,  9-H ) :   0.9519 B(  8-C , 10-H ) :   0.9488 B( 13-C , 14-C ) :   1.3701 
B( 13-C , 18-C ) :   1.3981 B( 14-C , 15-C ) :   1.4003 B( 14-C , 23-H ) :   0.9842 
B( 15-C , 16-C ) :   1.3947 B( 15-C , 22-H ) :   0.9847 B( 16-C , 17-C ) :   1.3848 
B( 16-C , 21-H ) :   0.9925 B( 17-C , 18-C ) :   1.3928 B( 17-C , 20-H ) :   0.9851 
B( 18-C , 19-H ) :   0.9790 

-------
TIMINGS
-------

Total SCF time: 0 days 0 hours 2 min 21 sec 

Total time                  ....     141.995 sec
Sum of individual times     ....     141.742 sec  ( 99.8%)

Fock matrix formation       ....     139.002 sec  ( 97.9%)
  XC integration            ....       5.580 sec  (  4.0% of F)
    Basis function eval.    ....       1.665 sec  ( 29.8% of XC)
    Density eval.           ....       1.135 sec  ( 20.3% of XC)
    XC-Functional eval.     ....       1.195 sec  ( 21.4% of XC)
    XC-Potential eval.      ....       1.437 sec  ( 25.8% of XC)
Diagonalization             ....       0.012 sec  (  0.0%)
Density matrix formation    ....       0.010 sec  (  0.0%)
Population analysis         ....       0.010 sec  (  0.0%)
Initial guess               ....       0.011 sec  (  0.0%)
Orbital Transformation      ....       0.000 sec  (  0.0%)
Orbital Orthonormalization  ....       0.008 sec  (  0.0%)
DIIS solution               ....       0.003 sec  (  0.0%)
SOSCF solution              ....       0.038 sec  (  0.0%)
Grid generation             ....       2.657 sec  (  1.9%)


-------------------------------------------------------------------------------
                          DFT DISPERSION CORRECTION                            
                                                                               
                              DFTD3 V3.1  Rev 1                                
                              USING zero damping                               
-------------------------------------------------------------------------------
The omegaB97X-D3 functional is recognized. Fit by Chai et al.
Active option DFTDOPT                   ...         3   

molecular C6(AA) [au] = 9219.581575 


            DFT-D V3
 parameters
 s6 scaling factor         :     1.0000 
 rs6 scaling factor        :     1.2810 
 s8 scaling factor         :     1.0000 
 rs8 scaling factor        :     1.0940 
 Damping factor alpha6     :    14.0000 
 Damping factor alpha8     :    16.0000 
 ad hoc parameters k1-k3   :    16.0000     1.3333    -4.0000 

 Edisp/kcal,au: -7.940698043180  -0.012654306468 
 E6   /kcal   :  -3.599063965 
 E8   /kcal   :  -4.341634078 
 % E8         :  54.675723146 

-------------------------   ----------------
Dispersion correction           -0.012654306
-------------------------   ----------------


-------------------------   --------------------
FINAL SINGLE POINT ENERGY      -633.776109092586
-------------------------   --------------------

                                *** OPTIMIZATION RUN DONE ***

                            ***************************************
                            *     ORCA property calculations      *
                            ***************************************

                                    ---------------------
                                    Active property flags
                                    ---------------------
   (+) Dipole Moment


------------------------------------------------------------------------------
                       ORCA ELECTRIC PROPERTIES CALCULATION
------------------------------------------------------------------------------

Dipole Moment Calculation                       ... on
Quadrupole Moment Calculation                   ... off
Polarizability Calculation                      ... off
GBWName                                         ... 072800758.gbw
Electron density file                           ... 072800758.scfp
The origin for moment calculation is the CENTER OF MASS  = (-0.008636,  0.029411  0.028348)

-------------
DIPOLE MOMENT
-------------
                                X             Y             Z
Electronic contribution:      7.05813       7.50083       0.13289
Nuclear contribution   :     -7.87274      -8.44202       0.59638
                        -----------------------------------------
Total Dipole Moment    :     -0.81460      -0.94119       0.72928
                        -----------------------------------------
Magnitude (a.u.)       :      1.44266
Magnitude (Debye)      :      3.66694



--------------------
Rotational spectrum 
--------------------
 
Rotational constants in cm-1:     0.027433     0.016470     0.012482 
Rotational constants in MHz :   822.408340   493.751608   374.188231 

 Dipole components along the rotational axes: 
x,y,z [a.u.] :     0.792047    -0.953769     0.737727 
x,y,z [Debye]:     2.013223    -2.424289     1.875153 

 

Timings for individual modules:

Sum of individual times         ...     2824.172 sec (=  47.070 min)
GTO integral calculation        ...        2.934 sec (=   0.049 min)   0.1 %
SCF iterations                  ...     1873.947 sec (=  31.232 min)  66.4 %
SCF Gradient evaluation         ...      945.676 sec (=  15.761 min)  33.5 %
Geometry relaxation             ...        1.615 sec (=   0.027 min)   0.1 %
                             ****ORCA TERMINATED NORMALLY****
TOTAL RUN TIME: 0 days 0 hours 47 minutes 7 seconds 151 msec
