
                                 *****************
                                 * O   R   C   A *
                                 *****************

           --- An Ab Initio, DFT and Semiempirical electronic structure package ---

                  #######################################################
                  #                        -***-                        #
                  #          Department of theory and spectroscopy      #
                  #               Directorship: Frank Neese             #
                  #        Max Planck Institute fuer Kohlenforschung    #
                  #                Kaiser Wilhelm Platz 1               #
                  #                 D-45470 Muelheim/Ruhr               #
                  #                      Germany                        #
                  #                                                     #
                  #                  All rights reserved                #
                  #                        -***-                        #
                  #######################################################


                         Program Version 4.2.0 -  RELEASE  -


 With contributions from (in alphabetic order):
   Daniel Aravena         : Magnetic Suceptibility
   Michael Atanasov       : Ab Initio Ligand Field Theory (pilot matlab implementation)
   Alexander A. Auer      : GIAO ZORA, VPT2
   Ute Becker             : Parallelization
   Giovanni Bistoni       : ED, misc. LED, open-shell LED, HFLED
   Martin Brehm           : Molecular dynamics
   Dmytro Bykov           : SCF Hessian
   Vijay G. Chilkuri      : MRCI spin determinant printing, contributions to CSF-ICE
   Dipayan Datta          : RHF DLPNO-CCSD density
   Achintya Kumar Dutta   : EOM-CC, STEOM-CC
   Dmitry Ganyushin       : Spin-Orbit,Spin-Spin,Magnetic field MRCI
   Miquel Garcia          : C-PCM Hessian, Gaussian charge scheme
   Yang Guo               : DLPNO-NEVPT2, CIM, IAO-localization
   Andreas Hansen         : Spin unrestricted coupled pair/coupled cluster methods
   Benjamin Helmich-Paris : CASSCF linear response (MC-RPA)
   Lee Huntington         : MR-EOM, pCC
   Robert Izsak           : Overlap fitted RIJCOSX, COSX-SCS-MP3, EOM
   Christian Kollmar      : KDIIS, OOCD, Brueckner-CCSD(T), CCSD density
   Simone Kossmann        : Meta GGA functionals, TD-DFT gradient, OOMP2, MP2 Hessian
   Martin Krupicka        : AUTO-CI
   Lucas Lang             : DCDCAS
   Dagmar Lenk            : GEPOL surface, SMD
   Dimitrios Liakos       : Extrapolation schemes; Compound Job, initial MDCI parallelization
   Dimitrios Manganas     : Further ROCIS development; embedding schemes
   Dimitrios Pantazis     : SARC Basis sets
   Taras Petrenko         : DFT Hessian,TD-DFT gradient, ASA, ECA, R-Raman, ABS, FL, XAS/XES, NRVS
   Peter Pinski           : DLPNO-MP2, DLPNO-MP2 Gradient
   Christoph Reimann      : Effective Core Potentials
   Marius Retegan         : Local ZFS, SOC
   Christoph Riplinger    : Optimizer, TS searches, QM/MM, DLPNO-CCSD(T), (RO)-DLPNO pert. Triples
   Tobias Risthaus        : Range-separated hybrids, TD-DFT gradient, RPA, STAB
   Michael Roemelt        : Original ROCIS implementation
   Masaaki Saitow         : Open-shell DLPNO-CCSD energy and density
   Barbara Sandhoefer     : DKH picture change effects
   Avijit Sen             : IP-ROCIS
   Kantharuban Sivalingam : CASSCF convergence, NEVPT2, FIC-MRCI
   Bernardo de Souza      : ESD, SOC TD-DFT
   Georgi Stoychev        : AutoAux, RI-MP2 NMR
   Willem Van den Heuvel  : Paramagnetic NMR
   Boris Wezisla          : Elementary symmetry handling
   Frank Wennmohs         : Technical directorship


 We gratefully acknowledge several colleagues who have allowed us to
 interface, adapt or use parts of their codes:
   Stefan Grimme, W. Hujo, H. Kruse,             : VdW corrections, initial TS optimization,
                  C. Bannwarth                     DFT functionals, gCP, sTDA/sTD-DF
   Ed Valeev, F. Pavosevic, A. Kumar             : LibInt (2-el integral package), F12 methods
   Garnet Chan, S. Sharma, J. Yang, R. Olivares  : DMRG
   Ulf Ekstrom                                   : XCFun DFT Library
   Mihaly Kallay                                 : mrcc  (arbitrary order and MRCC methods)
   Andreas Klamt, Michael Diedenhofen            : otool_cosmo (COSMO solvation model)
   Jiri Pittner, Ondrej Demel                    : Mk-CCSD
   Frank Weinhold                                : gennbo (NPA and NBO analysis)
   Christopher J. Cramer and Donald G. Truhlar   : smd solvation model
   Lars Goerigk                                  : TD-DFT with DH, B97 family of functionals
   V. Asgeirsson, H. Jonsson                     : NEB implementation
   FAccTs GmbH                                   : IRC, NEB, NEB-TS, Multilevel, MM, QM/MM, CI optimization
   S Lehtola, MJT Oliveira, MAL Marques          : LibXC Library


 Your calculation uses the libint2 library for the computation of 2-el integrals
 For citations please refer to: http://libint.valeyev.net

 Your ORCA version has been built with support for libXC version: 4.2.3
 For citations please refer to: https://tddft.org/programs/libxc/

 This ORCA versions uses:
   CBLAS   interface :  Fast vector & matrix operations
   LAPACKE interface :  Fast linear algebra routines
   SCALAPACK package :  Parallel linear algebra routines


Your calculation utilizes the atom-pairwise dispersion correction
with the zero-damping scheme (D30)
Cite in your paper:
S.Grimme, J.Antony, S.Ehrlich and H.Krieg, J.Chem.Phys., 132, (2010), 154104 
   

XCFun DFT library Copyright 2009-2010 Ulf Ekstrom and contributors.
See http://admol.org/xcfun for more information. This is free soft-
ware; see the source code for copying conditions. There is ABSOLUTELY
NO WARRANTY; not even for MERCHANTABILITY or FITNESS FOR A PARTICULAR
PURPOSE. For details see the documentation. Scientific users of this 
library should cite U. Ekstrom, L. Visscher, R. Bast, A. J. Thorvald-
sen and K. Ruud; J.Chem.Theor.Comp. 2010, DOI: 10.1021/ct100117s
XCFun Version 0.99 
----- Orbital basis set information -----
Your calculation utilizes the basis: def2-SVP
   F. Weigend and R. Ahlrichs, Phys. Chem. Chem. Phys. 7, 3297 (2005).

================================================================================
                                        WARNINGS
                       Please study these warnings very carefully!
================================================================================


WARNING: Geometry Optimization
  ===> : Switching off AutoStart
         For restart on a previous wavefunction, please use MOREAD

INFO   : the flag for use of LIBINT has been found!

================================================================================
                                       INPUT FILE
================================================================================
NAME = 010442429.inp
|  1> # ORCA input file
|  2> # -42.26205387
|  3> ! wB97X-D3 def2-SVP Opt
|  4> * xyz 0 1
|  5>    C        2.50290         2.29360         0.30420
|  6>    C        1.01830         2.15810        -0.01220
|  7>    H        0.72850         2.86400        -0.79480
|  8>    H        0.42270         2.36320         0.88900
|  9>    O        0.65160         0.89020        -0.53400
| 10>    C        0.63140        -0.16690         0.37930
| 11>    O        1.88800        -0.71210         0.64190
| 12>    C        2.59670        -1.21740        -0.48490
| 13>    C        4.06840        -1.32060        -0.11840
| 14>    H        4.62490        -1.74400        -0.94990
| 15>    H        4.46930        -0.33850         0.11630
| 16>    H        4.18590        -1.95900         0.75270
| 17>    H        2.20700        -2.20980        -0.75140
| 18>    H        2.45530        -0.54150        -1.33650
| 19>    C       -0.37070        -1.21070        -0.17650
| 20>    C       -1.73120        -0.63310        -0.16700
| 21>    O       -2.43630        -0.58420         0.96850
| 22>    C       -2.49900        -0.02470        -1.13160
| 23>    N       -3.64390         0.36250        -0.52540
| 24>    N       -3.62170         0.04760         0.68050
| 25>    H       -2.30460         0.14800        -2.16730
| 26>    H       -0.32720        -2.09690         0.45740
| 27>    H       -0.09180        -1.45700        -1.20000
| 28>    H        0.28250         0.17860         1.36750
| 29>    H        2.79380         1.57650         1.06770
| 30>    H        2.70400         3.29870         0.66530
| 31>    H        3.09450         2.11500        -0.59040
| 32> *
| 33> 
| 34>                          ****END OF INPUT****
================================================================================

                       *****************************
                       * Geometry Optimization Run *
                       *****************************

Geometry optimization settings:
Update method            Update   .... BFGS
Choice of coordinates    CoordSys .... Z-matrix Internals
Initial Hessian          InHess   .... Almoef's Model

Convergence Tolerances:
Energy Change            TolE     ....  5.0000e-06 Eh
Max. Gradient            TolMAXG  ....  3.0000e-04 Eh/bohr
RMS Gradient             TolRMSG  ....  1.0000e-04 Eh/bohr
Max. Displacement        TolMAXD  ....  4.0000e-03 bohr
RMS Displacement         TolRMSD  ....  2.0000e-03 bohr
Strict Convergence                ....  False
------------------------------------------------------------------------------
                        ORCA OPTIMIZATION COORDINATE SETUP
------------------------------------------------------------------------------

The optimization will be done in new redundant internal coordinates
Making redundant internal coordinates   ...  (new redundants) done
Evaluating the initial hessian          ...  (Almloef) done
Evaluating the coordinates              ...  done
Calculating the B-matrix                .... done
Calculating the G-matrix                .... done
Diagonalizing the G-matrix              .... done
Small eigenvalue found = 8.491e-03
Small eigenvalue found = 1.012e-02
Small eigenvalue found = 1.391e-02
Small eigenvalue found = 2.358e-02
The first mode is                       ....   54
The number of degrees of freedom        ....   75

    -----------------------------------------------------------------
                    Redundant Internal Coordinates


    -----------------------------------------------------------------
         Definition                    Initial Value    Approx d2E/dq
    -----------------------------------------------------------------
      1. B(C   1,C   0)                  1.5240         0.381932   
      2. B(H   2,C   1)                  1.0930         0.356098   
      3. B(H   3,C   1)                  1.0995         0.347711   
      4. B(O   4,C   1)                  1.4193         0.502556   
      5. B(C   5,O   4)                  1.3971         0.545121   
      6. B(O   6,C   5)                  1.3947         0.549977   
      7. B(C   7,O   6)                  1.4238         0.494218   
      8. B(C   8,C   7)                  1.5202         0.387332   
      9. B(H   9,C   8)                  1.0864         0.364840   
     10. B(H  10,C   8)                  1.0864         0.364857   
     11. B(H  11,C   8)                  1.0864         0.364949   
     12. B(H  12,C   7)                  1.0990         0.348421   
     13. B(H  13,C   7)                  1.0964         0.351753   
     14. B(C  14,C   5)                  1.5500         0.347055   
     15. B(C  15,C  14)                  1.4781         0.452104   
     16. B(O  16,C  15)                  1.3375         0.678624   
     17. B(C  17,C  15)                  1.3748         0.660637   
     18. B(N  18,C  17)                  1.3521         0.643174   
     19. B(N  19,N  18)                  1.2465         0.848988   
     20. B(N  19,O  16)                  1.3738         0.531962   
     21. B(H  20,C  17)                  1.0678         0.390635   
     22. B(H  21,C  14)                  1.0904         0.359511   
     23. B(H  22,C  14)                  1.0890         0.361376   
     24. B(H  23,C   5)                  1.1035         0.342718   
     25. B(H  24,C   0)                  1.0871         0.363956   
     26. B(H  25,C   0)                  1.0868         0.364404   
     27. B(H  26,C   0)                  1.0873         0.363704   
     28. A(C   1,C   0,H  25)          109.3585         0.326137   
     29. A(C   1,C   0,H  26)          110.1586         0.326034   
     30. A(H  25,C   0,H  26)          108.9425         0.291840   
     31. A(C   1,C   0,H  24)          110.3553         0.326071   
     32. A(H  24,C   0,H  25)          109.0987         0.291871   
     33. A(H  24,C   0,H  26)          108.8994         0.291783   
     34. A(C   0,C   1,H   2)          110.4573         0.324903   
     35. A(H   3,C   1,O   4)          109.1487         0.336617   
     36. A(H   2,C   1,H   3)          108.8294         0.288740   
     37. A(C   0,C   1,O   4)          114.0452         0.381447   
     38. A(H   2,C   1,O   4)          104.1935         0.337956   
     39. A(C   0,C   1,H   3)          109.9341         0.323634   
     40. A(C   1,O   4,C   5)          116.0610         0.403362   
     41. A(C  14,C   5,H  23)          109.1199         0.317852   
     42. A(O   6,C   5,H  23)          103.8070         0.340897   
     43. A(O   4,C   5,C  14)          106.5265         0.380492   
     44. A(O   6,C   5,C  14)          112.7526         0.381077   
     45. A(O   4,C   5,H  23)          110.6759         0.340391   
     46. A(O   4,C   5,O   6)          113.9423         0.409843   
     47. A(C   5,O   6,C   7)          115.9876         0.402803   
     48. A(H  12,C   7,H  13)          108.8206         0.288278   
     49. A(C   8,C   7,H  13)          110.7307         0.324997   
     50. A(O   6,C   7,C   8)          108.3712         0.381269   
     51. A(O   6,C   7,H  13)          109.3735         0.336327   
     52. A(C   8,C   7,H  12)          109.9049         0.324489   
     53. A(O   6,C   7,H  12)          109.6263         0.335795   
     54. A(H   9,C   8,H  11)          109.2248         0.292052   
     55. A(C   7,C   8,H  11)          109.7507         0.326972   
     56. A(H   9,C   8,H  10)          109.1845         0.292040   
     57. A(C   7,C   8,H  10)          110.3626         0.326959   
     58. A(C   7,C   8,H   9)          109.7449         0.326956   
     59. A(H  10,C   8,H  11)          108.5471         0.292054   
     60. A(C   5,C  14,C  15)          109.2456         0.370724   
     61. A(H  21,C  14,H  22)          110.6293         0.290926   
     62. A(C  15,C  14,H  22)          109.2778         0.334900   
     63. A(C   5,C  14,H  22)          108.8883         0.320615   
     64. A(C  15,C  14,H  21)          110.5221         0.334612   
     65. A(C   5,C  14,H  21)          108.2422         0.320344   
     66. A(O  16,C  15,C  17)          106.5625         0.443352   
     67. A(C  14,C  15,C  17)          133.0376         0.414911   
     68. A(C  14,C  15,O  16)          120.3306         0.414201   
     69. A(C  15,O  16,N  19)          107.0809         0.420812   
     70. A(C  15,C  17,N  18)          106.5620         0.439075   
     71. A(N  18,C  17,H  20)          122.8661         0.357827   
     72. A(C  15,C  17,H  20)          130.5718         0.361706   
     73. A(C  17,N  18,N  19)          110.2611         0.453392   
     74. A(O  16,N  19,N  18)          109.5331         0.435137   
     75. D(H   2,C   1,C   0,H  24)   -178.8072         0.011620   
     76. D(H   3,C   1,C   0,H  26)   -178.6409         0.011620   
     77. D(H   2,C   1,C   0,H  25)     61.1760         0.011620   
     78. D(H   3,C   1,C   0,H  25)    -58.9378         0.011620   
     79. D(H   2,C   1,C   0,H  26)    -58.5271         0.011620   
     80. D(H   3,C   1,C   0,H  24)     61.0790         0.011620   
     81. D(O   4,C   1,C   0,H  25)    178.1130         0.011620   
     82. D(O   4,C   1,C   0,H  26)     58.4098         0.011620   
     83. D(O   4,C   1,C   0,H  24)    -61.8702         0.011620   
     84. D(C   5,O   4,C   1,H   3)    -49.9026         0.019973   
     85. D(C   5,O   4,C   1,H   2)   -166.0216         0.019973   
     86. D(C   5,O   4,C   1,C   0)     73.4732         0.019973   
     87. D(O   6,C   5,O   4,C   1)    -80.8131         0.023662   
     88. D(C  14,C   5,O   4,C   1)    154.2169         0.023662   
     89. D(H  23,C   5,O   4,C   1)     35.7169         0.023662   
     90. D(C   7,O   6,C   5,H  23)   -178.5853         0.024108   
     91. D(C   7,O   6,C   5,C  14)     63.4570         0.024108   
     92. D(C   7,O   6,C   5,O   4)    -58.1252         0.024108   
     93. D(H  13,C   7,O   6,C   5)     40.0859         0.019296   
     94. D(H  12,C   7,O   6,C   5)    -79.1533         0.019296   
     95. D(C   8,C   7,O   6,C   5)    160.8931         0.019296   
     96. D(H  11,C   8,C   7,H  13)    177.5551         0.011935   
     97. D(H  11,C   8,C   7,H  12)    -62.1865         0.011935   
     98. D(H  11,C   8,C   7,O   6)     57.5928         0.011935   
     99. D(H  10,C   8,C   7,H  13)     57.9673         0.011935   
    100. D(H  10,C   8,C   7,H  12)    178.2257         0.011935   
    101. D(H  10,C   8,C   7,O   6)    -61.9950         0.011935   
    102. D(H   9,C   8,C   7,H  13)    -62.4060         0.011935   
    103. D(H   9,C   8,C   7,H  12)     57.8524         0.011935   
    104. D(H   9,C   8,C   7,O   6)    177.6317         0.011935   
    105. D(C  15,C  14,C   5,O   4)    -65.7375         0.009718   
    106. D(H  22,C  14,C   5,O   6)    -72.1540         0.009718   
    107. D(H  22,C  14,C   5,O   4)     53.5406         0.009718   
    108. D(H  21,C  14,C   5,H  23)    -66.6224         0.009718   
    109. D(H  21,C  14,C   5,O   6)     48.1674         0.009718   
    110. D(H  21,C  14,C   5,O   4)    173.8619         0.009718   
    111. D(C  15,C  14,C   5,H  23)     53.7783         0.009718   
    112. D(H  22,C  14,C   5,H  23)    173.0563         0.009718   
    113. D(C  15,C  14,C   5,O   6)    168.5680         0.009718   
    114. D(C  17,C  15,C  14,H  22)    -21.5697         0.015072   
    115. D(C  17,C  15,C  14,H  21)   -143.5391         0.015072   
    116. D(C  17,C  15,C  14,C   5)     97.4668         0.015072   
    117. D(O  16,C  15,C  14,H  22)    161.9050         0.015072   
    118. D(O  16,C  15,C  14,H  21)     39.9356         0.015072   
    119. D(O  16,C  15,C  14,C   5)    -79.0585         0.015072   
    120. D(N  19,O  16,C  15,C  17)      0.1740         0.034289   
    121. D(N  19,O  16,C  15,C  14)    177.5251         0.034289   
    122. D(H  20,C  17,C  15,O  16)    179.7562         0.030459   
    123. D(H  20,C  17,C  15,C  14)      2.8847         0.030459   
    124. D(N  18,C  17,C  15,O  16)     -0.1688         0.030459   
    125. D(N  18,C  17,C  15,C  14)   -177.0403         0.030459   
    126. D(N  19,N  18,C  17,H  20)   -179.8327         0.030520   
    127. D(N  19,N  18,C  17,C  15)      0.0995         0.030520   
    128. D(O  16,N  19,N  18,C  17)      0.0097         0.059086   
    129. D(N  18,N  19,O  16,C  15)     -0.1184         0.021171   
    -----------------------------------------------------------------

Number of atoms                         .... 27
Number of degrees of freedom            .... 129

         *************************************************************
         *                GEOMETRY OPTIMIZATION CYCLE   1            *
         *************************************************************
---------------------------------
CARTESIAN COORDINATES (ANGSTROEM)
---------------------------------
  C      2.502900    2.293600    0.304200
  C      1.018300    2.158100   -0.012200
  H      0.728500    2.864000   -0.794800
  H      0.422700    2.363200    0.889000
  O      0.651600    0.890200   -0.534000
  C      0.631400   -0.166900    0.379300
  O      1.888000   -0.712100    0.641900
  C      2.596700   -1.217400   -0.484900
  C      4.068400   -1.320600   -0.118400
  H      4.624900   -1.744000   -0.949900
  H      4.469300   -0.338500    0.116300
  H      4.185900   -1.959000    0.752700
  H      2.207000   -2.209800   -0.751400
  H      2.455300   -0.541500   -1.336500
  C     -0.370700   -1.210700   -0.176500
  C     -1.731200   -0.633100   -0.167000
  O     -2.436300   -0.584200    0.968500
  C     -2.499000   -0.024700   -1.131600
  N     -3.643900    0.362500   -0.525400
  N     -3.621700    0.047600    0.680500
  H     -2.304600    0.148000   -2.167300
  H     -0.327200   -2.096900    0.457400
  H     -0.091800   -1.457000   -1.200000
  H      0.282500    0.178600    1.367500
  H      2.793800    1.576500    1.067700
  H      2.704000    3.298700    0.665300
  H      3.094500    2.115000   -0.590400

----------------------------
CARTESIAN COORDINATES (A.U.)
----------------------------
  NO LB      ZA    FRAG     MASS         X           Y           Z
   0 C     6.0000    0    12.011    4.729796    4.334276    0.574855
   1 C     6.0000    0    12.011    1.924308    4.078218   -0.023055
   2 H     1.0000    0     1.008    1.376665    5.412176   -1.501954
   3 H     1.0000    0     1.008    0.798787    4.465801    1.679967
   4 O     8.0000    0    15.999    1.231346    1.682234   -1.009114
   5 C     6.0000    0    12.011    1.193173   -0.315395    0.716773
   6 O     8.0000    0    15.999    3.567803   -1.345674    1.213015
   7 C     6.0000    0    12.011    4.907052   -2.300553   -0.916328
   8 C     6.0000    0    12.011    7.688162   -2.495572   -0.223744
   9 H     1.0000    0     1.008    8.739794   -3.295682   -1.795051
  10 H     1.0000    0     1.008    8.445753   -0.639672    0.219775
  11 H     1.0000    0     1.008    7.910205   -3.701973    1.422397
  12 H     1.0000    0     1.008    4.170626   -4.175917   -1.419940
  13 H     1.0000    0     1.008    4.639845   -1.023287   -2.525619
  14 C     6.0000    0    12.011   -0.700521   -2.287891   -0.333537
  15 C     6.0000    0    12.011   -3.271494   -1.196386   -0.315584
  16 O     8.0000    0    15.999   -4.603940   -1.103978    1.830200
  17 C     6.0000    0    12.011   -4.722426   -0.046676   -2.138414
  18 N     7.0000    0    14.007   -6.885973    0.685026   -0.992862
  19 N     7.0000    0    14.007   -6.844021    0.089951    1.285959
  20 H     1.0000    0     1.008   -4.355063    0.279679   -4.095603
  21 H     1.0000    0     1.008   -0.618318   -3.962567    0.864361
  22 H     1.0000    0     1.008   -0.173477   -2.753331   -2.267671
  23 H     1.0000    0     1.008    0.533848    0.337505    2.584200
  24 H     1.0000    0     1.008    5.279517    2.979153    2.017661
  25 H     1.0000    0     1.008    5.109819    6.233640    1.257235
  26 H     1.0000    0     1.008    5.847758    3.996771   -1.115694

--------------------------------
INTERNAL COORDINATES (ANGSTROEM)
--------------------------------
 C      0   0   0     0.000000000000     0.00000000     0.00000000
 C      1   0   0     1.523977155341     0.00000000     0.00000000
 H      2   1   0     1.093042364229   110.45729021     0.00000000
 H      2   1   3     1.099530267887   109.93407599   239.88616211
 O      2   1   3     1.419265493134   114.04520352   116.93691597
 C      5   2   1     1.397134689284   116.06097347    73.47321231
 O      6   5   2     1.394720531146   113.94233879   279.18694901
 C      7   6   5     1.423819518057   115.98759638   301.87478815
 C      8   7   6     1.520155709130   108.37124353   160.89306808
 H      9   8   7     1.086440085785   109.74491660   177.63165343
 H      9   8   7     1.086427774866   110.36257974   298.00496215
 H      9   8   7     1.086359065871   109.75067483    57.59276301
 H      8   7   6     1.098975022464   109.62629078   280.84665484
 H      8   7   6     1.096383751248   109.37351963    40.08586266
 C      6   5   2     1.550044028407   106.52654295   154.21686468
 C     15   6   5     1.478063686043   109.24564972   294.26253773
 O     16  15   6     1.337504194386   120.33060250   280.94147468
 C     16  15   6     1.374816555036   133.03756475    97.46681084
 N     18  16  15     1.352108830679   106.56203921   182.95972705
 N     19  18  16     1.246535061681   110.26112992     0.09952662
 H     18  16  15     1.067844155296   130.57181623     2.88473136
 H     15   6   5     1.090445734551   108.24218126   173.86191979
 H     15   6   5     1.089036799195   108.88827382    53.54057726
 H      6   5   2     1.103467579950   110.67589265    35.71690248
 H      1   2   3     1.087100487536   110.35534109   181.19284038
 H      1   2   3     1.086766041980   109.35851200    61.17604643
 H      1   2   3     1.087289142777   110.15863644   301.47292422

---------------------------
INTERNAL COORDINATES (A.U.)
---------------------------
 C      0   0   0     0.000000000000     0.00000000     0.00000000
 C      1   0   0     2.879899457946     0.00000000     0.00000000
 H      2   1   0     2.065550721167   110.45729021     0.00000000
 H      2   1   3     2.077811082264   109.93407599   239.88616211
 O      2   1   3     2.682023093347   114.04520352   116.93691597
 C      5   2   1     2.640201934947   116.06097347    73.47321231
 O      6   5   2     2.635639837223   113.94233879   279.18694901
 C      7   6   5     2.690628953259   115.98759638   301.87478815
 C      8   7   6     2.872677971172   108.37124353   160.89306808
 H      9   8   7     2.053074223047   109.74491660   177.63165343
 H      9   8   7     2.053050958782   110.36257974   298.00496215
 H      9   8   7     2.052921117599   109.75067483    57.59276301
 H      8   7   6     2.076761820477   109.62629078   280.84665484
 H      8   7   6     2.071865027539   109.37351963    40.08586266
 C      6   5   2     2.929158709209   106.52654295   154.21686468
 C     15   6   5     2.793135575116   109.24564972   294.26253773
 O     16  15   6     2.527516630360   120.33060250   280.94147468
 C     16  15   6     2.598026773398   133.03756475    97.46681084
 N     18  16  15     2.555115393240   106.56203921   182.95972705
 N     19  18  16     2.355609882908   110.26112992     0.09952662
 H     18  16  15     2.017933007218   130.57181623     2.88473136
 H     15   6   5     2.060643802204   108.24218126   173.86191979
 H     15   6   5     2.057981300240   108.88827382    53.54057726
 H      6   5   2     2.085251523766   110.67589265    35.71690248
 H      1   2   3     2.054322201494   110.35534109   181.19284038
 H      1   2   3     2.053690190987   109.35851200    61.17604643
 H      1   2   3     2.054678708234   110.15863644   301.47292422

---------------------
BASIS SET INFORMATION
---------------------
There are 4 groups of distinct atoms

 Group   1 Type C   : 7s4p1d contracted to 3s2p1d pattern {511/31/1}
 Group   2 Type H   : 4s1p contracted to 2s1p pattern {31/1}
 Group   3 Type O   : 7s4p1d contracted to 3s2p1d pattern {511/31/1}
 Group   4 Type N   : 7s4p1d contracted to 3s2p1d pattern {511/31/1}

Atom   0C    basis set group =>   1
Atom   1C    basis set group =>   1
Atom   2H    basis set group =>   2
Atom   3H    basis set group =>   2
Atom   4O    basis set group =>   3
Atom   5C    basis set group =>   1
Atom   6O    basis set group =>   3
Atom   7C    basis set group =>   1
Atom   8C    basis set group =>   1
Atom   9H    basis set group =>   2
Atom  10H    basis set group =>   2
Atom  11H    basis set group =>   2
Atom  12H    basis set group =>   2
Atom  13H    basis set group =>   2
Atom  14C    basis set group =>   1
Atom  15C    basis set group =>   1
Atom  16O    basis set group =>   3
Atom  17C    basis set group =>   1
Atom  18N    basis set group =>   4
Atom  19N    basis set group =>   4
Atom  20H    basis set group =>   2
Atom  21H    basis set group =>   2
Atom  22H    basis set group =>   2
Atom  23H    basis set group =>   2
Atom  24H    basis set group =>   2
Atom  25H    basis set group =>   2
Atom  26H    basis set group =>   2
------------------------------------------------------------------------------
                           ORCA GTO INTEGRAL CALCULATION
------------------------------------------------------------------------------

                         BASIS SET STATISTICS AND STARTUP INFO

 # of primitive gaussian shells          ...  226
 # of primitive gaussian functions       ...  410
 # of contracted shells                  ...  120
 # of contracted basis functions         ...  252
 Highest angular momentum                ...    2
 Maximum contraction depth               ...    5
 Integral package used                   ... LIBINT
 Integral threshhold            Thresh   ...  2.500e-11
 Primitive cut-off              TCut     ...  2.500e-12


------------------------------ INTEGRAL EVALUATION ----------------------------


 * One electron integrals 
 Pre-screening matrix                    ... done
 Shell pair data                         ... done (   0.002 sec)

-------------------------------------------------------------------------------
                                 ORCA SCF
-------------------------------------------------------------------------------

------------
SCF SETTINGS
------------
Hamiltonian:
 Density Functional     Method          .... DFT(GTOs)
 Exchange Functional    Exchange        .... WB97X-D3
 Correlation Functional Correlation     .... WB97X-D3
 Gradients option       PostSCFGGA      .... off
 Hybrid DFT is turned on
   Fraction HF Exchange ScalHFX         ....  0.195728
   Scaling of DF-GGA-X  ScalDFX         ....  0.000000
   Scaling of DF-GGA-C  ScalDFC         ....  1.000000
   Scaling of DF-LDA-C  ScalLDAC        ....  1.000000
   Perturbative correction              ....  0.000000
   Density functional embedding theory  .... OFF
 Long-range corrected/Screened/Range-Separated Hybrid DFT is turned on
   Amount of maximum screened exact exchange              ....  0.804272
   Range separation parameter mu (erf(mu*r12)/r12)        ....  0.250000


General Settings:
 Integral files         IntName         .... 010442429
 Hartree-Fock type      HFTyp           .... RHF
 Total Charge           Charge          ....    0
 Multiplicity           Mult            ....    1
 Number of Electrons    NEL             ....  100
 Basis Dimension        Dim             ....  252
 Nuclear Repulsion      ENuc            ....    848.2374363234 Eh

Convergence Acceleration:
 DIIS                   CNVDIIS         .... on
   Start iteration      DIISMaxIt       ....    12
   Startup error        DIISStart       ....  0.200000
   # of expansion vecs  DIISMaxEq       ....     5
   Bias factor          DIISBfac        ....   1.050
   Max. coefficient     DIISMaxC        ....  10.000
 Newton-Raphson         CNVNR           .... off
 SOSCF                  CNVSOSCF        .... on
   Start iteration      SOSCFMaxIt      ....   150
   Startup grad/error   SOSCFStart      ....  0.003300
 Level Shifting         CNVShift        .... on
   Level shift para.    LevelShift      ....    0.2500
   Turn off err/grad.   ShiftErr        ....    0.0010
 Zerner damping         CNVZerner       .... off
 Static damping         CNVDamp         .... on
   Fraction old density DampFac         ....    0.7000
   Max. Damping (<1)    DampMax         ....    0.9800
   Min. Damping (>=0)   DampMin         ....    0.0000
   Turn off err/grad.   DampErr         ....    0.1000
 Fernandez-Rico         CNVRico         .... off

SCF Procedure:
 Maximum # iterations   MaxIter         ....   125
 SCF integral mode      SCFMode         .... Direct
   Integral package                     .... LIBINT
 Reset frequency        DirectResetFreq ....    20
 Integral Threshold     Thresh          ....  2.500e-11 Eh
 Primitive CutOff       TCut            ....  2.500e-12 Eh

Convergence Tolerance:
 Convergence Check Mode ConvCheckMode   .... Total+1el-Energy
 Convergence forced     ConvForced      .... 0
 Energy Change          TolE            ....  1.000e-08 Eh
 1-El. energy change                    ....  1.000e-05 Eh
 Orbital Gradient       TolG            ....  1.000e-05
 Orbital Rotation angle TolX            ....  1.000e-05
 DIIS Error             TolErr          ....  5.000e-07


Diagonalization of the overlap matrix:
Smallest eigenvalue                        ... 1.071e-03
Time for diagonalization                   ...    0.091 sec
Threshold for overlap eigenvalues          ... 1.000e-08
Number of eigenvalues below threshold      ... 0
Time for construction of square roots      ...    0.004 sec
Total time needed                          ...    0.095 sec

-------------------
DFT GRID GENERATION
-------------------

General Integration Accuracy     IntAcc      ...  4.340
Radial Grid Type                 RadialGrid  ... Gauss-Chebyshev
Angular Grid (max. acc.)         AngularGrid ... Lebedev-110
Angular grid pruning method      GridPruning ... 3 (G Style)
Weight generation scheme         WeightScheme... Becke
Basis function cutoff            BFCut       ...    1.0000e-11
Integration weight cutoff        WCut        ...    1.0000e-14
Grids for H and He will be reduced by one unit

# of grid points (after initial pruning)     ...  32916 (   0.0 sec)
# of grid points (after weights+screening)   ...  29798 (   0.1 sec)
nearest neighbour list constructed           ...    0.0 sec
Grid point re-assignment to atoms done       ...    0.0 sec
Grid point division into batches done        ...    0.0 sec
Reduced shell lists constructed in    0.2 sec

Total number of grid points                  ...    29798
Total number of batches                      ...      479
Average number of points per batch           ...       62
Average number of grid points per atom       ...     1104
Average number of shells per batch           ...    72.10 (60.08%)
Average number of basis functions per batch  ...   143.25 (56.85%)
Average number of large shells per batch     ...    51.65 (71.65%)
Average number of large basis fcns per batch ...   101.44 (70.81%)
Maximum spatial batch extension              ...  20.48, 18.16, 20.21 au
Average spatial batch extension              ...   3.38,  3.28,  3.51 au

Time for grid setup =    0.406 sec

------------------------------
INITIAL GUESS: MODEL POTENTIAL
------------------------------
Loading Hartree-Fock densities                     ... done
Calculating cut-offs                               ... done
Setting up the integral package                    ... done
Initializing the effective Hamiltonian             ... done
Starting the Coulomb interaction                   ... done (   0.3 sec)
Reading the grid                                   ... done
Mapping shells                                     ... done
Starting the XC term evaluation                    ... done (   0.4 sec)
  promolecular density results
     # of electrons  =     99.999257692
     EX              =    -82.617249289
     EC              =     -3.358880177
     EX+EC           =    -85.976129466
Transforming the Hamiltonian                       ... done (   0.0 sec)
Diagonalizing the Hamiltonian                      ... done (   0.0 sec)
Back transforming the eigenvectors                 ... done (   0.0 sec)
Now organizing SCF variables                       ... done
                      ------------------
                      INITIAL GUESS DONE (   1.2 sec)
                      ------------------
--------------
SCF ITERATIONS
--------------
ITER       Energy         Delta-E        Max-DP      RMS-DP      [F,P]     Damp
               ***  Starting incremental Fock matrix formation  ***
  0   -647.4684830416   0.000000000000 0.06698796  0.00138413  0.1592385 0.7000
  1   -647.5668907084  -0.098407666803 0.04516832  0.00098602  0.0962392 0.7000
                               ***Turning on DIIS***
  2   -647.6172547752  -0.050364066852 0.07946243  0.00188717  0.0501308 0.0000
  3   -647.7017699983  -0.084515223118 0.03411254  0.00070160  0.0352001 0.0000
  4   -647.7129141735  -0.011144175187 0.00755957  0.00014861  0.0072154 0.0000
  5   -647.7132377522  -0.000323578681 0.00264317  0.00005866  0.0036215 0.0000
                      *** Initiating the SOSCF procedure ***
                           *** Shutting down DIIS ***
                      *** Re-Reading the Fockian *** 
                      *** Removing any level shift *** 
ITER      Energy       Delta-E        Grad      Rot      Max-DP    RMS-DP
  6   -647.71330550  -0.0000677520  0.000529  0.000529  0.001253  0.000038
               *** Restarting incremental Fock matrix formation ***
  7   -647.71331476  -0.0000092574  0.000218  0.000543  0.000878  0.000015
  8   -647.71331518  -0.0000004168  0.000392  0.000399  0.000582  0.000007
  9   -647.71331692  -0.0000017441  0.000046  0.000106  0.000127  0.000003
 10   -647.71331696  -0.0000000412  0.000047  0.000075  0.000057  0.000001
 11   -647.71331701  -0.0000000438  0.000007  0.000011  0.000018  0.000000
                  ***Gradient check signals convergence***
              ***Rediagonalizing the Fockian in SOSCF/NRSCF***

               *****************************************************
               *                     SUCCESS                       *
               *           SCF CONVERGED AFTER  12 CYCLES          *
               *****************************************************

Setting up the final grid:

General Integration Accuracy     IntAcc      ...  4.670
Radial Grid Type                 RadialGrid  ... Gauss-Chebyshev
Angular Grid (max. acc.)         AngularGrid ... Lebedev-302
Angular grid pruning method      GridPruning ... 3 (G Style)
Weight generation scheme         WeightScheme... Becke
Basis function cutoff            BFCut       ...    1.0000e-11
Integration weight cutoff        WCut        ...    1.0000e-14
Grids for H and He will be reduced by one unit

# of grid points (after initial pruning)     ... 128272 (   0.1 sec)
# of grid points (after weights+screening)   ... 113839 (   0.6 sec)
nearest neighbour list constructed           ...    0.0 sec
Grid point re-assignment to atoms done       ...    0.0 sec
Grid point division into batches done        ...    0.4 sec
Reduced shell lists constructed in    1.2 sec

Total number of grid points                  ...   113839
Total number of batches                      ...     1792
Average number of points per batch           ...       63
Average number of grid points per atom       ...     4216
Average number of shells per batch           ...    65.80 (54.83%)
Average number of basis functions per batch  ...   129.41 (51.35%)
Average number of large shells per batch     ...    46.27 (70.32%)
Average number of large basis fcns per batch ...    89.98 (69.53%)
Maximum spatial batch extension              ...  20.55, 18.75, 24.87 au
Average spatial batch extension              ...   2.24,  2.23,  2.29 au

Final grid set up in    1.8 sec
Final integration                            ... done (   2.0 sec)
Change in XC energy                          ...     0.000403920
Integrated number of electrons               ...   100.000087398
Previous integrated no of electrons          ...   100.000992744

----------------
TOTAL SCF ENERGY
----------------

Total Energy       :         -647.71291309 Eh          -17625.16441 eV

Components:
Nuclear Repulsion  :          848.23743632 Eh           23081.71409 eV
Electronic Energy  :        -1495.95034941 Eh          -40706.87851 eV
One Electron Energy:        -2563.96668869 Eh          -69769.08059 eV
Two Electron Energy:         1068.01633927 Eh           29062.20209 eV

Virial components:
Potential Energy   :        -1289.61934827 Eh          -35092.32653 eV
Kinetic Energy     :          641.90643518 Eh           17467.16211 eV
Virial Ratio       :            2.00904568


DFT components:
N(Alpha)           :       50.000043699138 electrons
N(Beta)            :       50.000043699138 electrons
N(Total)           :      100.000087398276 electrons
E(XC)              :      -60.782832644143 Eh       
DFET-embed. en.    :        0.000000000000 Eh       

---------------
SCF CONVERGENCE
---------------

  Last Energy change         ...   -2.7932e-09  Tolerance :   1.0000e-08
  Last MAX-Density change    ...    6.7105e-06  Tolerance :   1.0000e-07
  Last RMS-Density change    ...    1.5952e-07  Tolerance :   5.0000e-09
  Last Orbital Gradient      ...    2.2469e-06  Tolerance :   1.0000e-05
  Last Orbital Rotation      ...    3.7144e-06  Tolerance :   1.0000e-05

             **** THE GBW FILE WAS UPDATED (010442429.gbw) ****
             **** DENSITY FILE WAS UPDATED (010442429.scfp) ****
             **** ENERGY FILE WAS UPDATED (010442429.en.tmp) ****
             **** THE GBW FILE WAS UPDATED (010442429.gbw) ****
             **** DENSITY FILE WAS UPDATED (010442429.scfp) ****
----------------
ORBITAL ENERGIES
----------------

  NO   OCC          E(Eh)            E(eV) 
   0   2.0000     -19.347342      -526.4679 
   1   2.0000     -19.260249      -524.0980 
   2   2.0000     -19.255909      -523.9799 
   3   2.0000     -14.516299      -395.0086 
   4   2.0000     -14.472686      -393.8218 
   5   2.0000     -10.403746      -283.1003 
   6   2.0000     -10.376340      -282.3546 
   7   2.0000     -10.344184      -281.4796 
   8   2.0000     -10.342873      -281.4439 
   9   2.0000     -10.323835      -280.9258 
  10   2.0000     -10.321036      -280.8497 
  11   2.0000     -10.286143      -279.9002 
  12   2.0000     -10.282780      -279.8087 
  13   2.0000      -1.306994       -35.5651 
  14   2.0000      -1.193692       -32.4820 
  15   2.0000      -1.128940       -30.7200 
  16   2.0000      -1.101566       -29.9751 
  17   2.0000      -0.956204       -26.0196 
  18   2.0000      -0.903231       -24.5782 
  19   2.0000      -0.871684       -23.7197 
  20   2.0000      -0.857532       -23.3346 
  21   2.0000      -0.779089       -21.2001 
  22   2.0000      -0.764437       -20.8014 
  23   2.0000      -0.743956       -20.2441 
  24   2.0000      -0.723633       -19.6910 
  25   2.0000      -0.688135       -18.7251 
  26   2.0000      -0.648413       -17.6442 
  27   2.0000      -0.634401       -17.2629 
  28   2.0000      -0.619623       -16.8608 
  29   2.0000      -0.616119       -16.7655 
  30   2.0000      -0.598381       -16.2828 
  31   2.0000      -0.576576       -15.6894 
  32   2.0000      -0.558727       -15.2037 
  33   2.0000      -0.539031       -14.6678 
  34   2.0000      -0.529914       -14.4197 
  35   2.0000      -0.526195       -14.3185 
  36   2.0000      -0.509706       -13.8698 
  37   2.0000      -0.500238       -13.6122 
  38   2.0000      -0.493931       -13.4406 
  39   2.0000      -0.480638       -13.0788 
  40   2.0000      -0.472068       -12.8456 
  41   2.0000      -0.462740       -12.5918 
  42   2.0000      -0.452751       -12.3200 
  43   2.0000      -0.449695       -12.2368 
  44   2.0000      -0.444860       -12.1052 
  45   2.0000      -0.408787       -11.1237 
  46   2.0000      -0.386689       -10.5223 
  47   2.0000      -0.381868       -10.3912 
  48   2.0000      -0.381159       -10.3719 
  49   2.0000      -0.354046        -9.6341 
  50   0.0000       0.047487         1.2922 
  51   0.0000       0.121110         3.2956 
  52   0.0000       0.138894         3.7795 
  53   0.0000       0.148161         4.0317 
  54   0.0000       0.154399         4.2014 
  55   0.0000       0.169232         4.6050 
  56   0.0000       0.188055         5.1172 
  57   0.0000       0.191466         5.2101 
  58   0.0000       0.197656         5.3785 
  59   0.0000       0.200946         5.4680 
  60   0.0000       0.203927         5.5491 
  61   0.0000       0.215370         5.8605 
  62   0.0000       0.220668         6.0047 
  63   0.0000       0.229905         6.2560 
  64   0.0000       0.242577         6.6009 
  65   0.0000       0.243475         6.6253 
  66   0.0000       0.250605         6.8193 
  67   0.0000       0.257842         7.0162 
  68   0.0000       0.262753         7.1499 
  69   0.0000       0.273910         7.4535 
  70   0.0000       0.306912         8.3515 
  71   0.0000       0.316635         8.6161 
  72   0.0000       0.324166         8.8210 
  73   0.0000       0.330846         9.0028 
  74   0.0000       0.360374         9.8063 
  75   0.0000       0.366840         9.9822 
  76   0.0000       0.382688        10.4135 
  77   0.0000       0.401382        10.9222 
  78   0.0000       0.465952        12.6792 
  79   0.0000       0.489538        13.3210 
  80   0.0000       0.506795        13.7906 
  81   0.0000       0.519815        14.1449 
  82   0.0000       0.532780        14.4977 
  83   0.0000       0.537731        14.6324 
  84   0.0000       0.552021        15.0213 
  85   0.0000       0.561464        15.2782 
  86   0.0000       0.577583        15.7168 
  87   0.0000       0.587878        15.9970 
  88   0.0000       0.595799        16.2125 
  89   0.0000       0.600013        16.3272 
  90   0.0000       0.629739        17.1361 
  91   0.0000       0.642701        17.4888 
  92   0.0000       0.651115        17.7177 
  93   0.0000       0.660703        17.9786 
  94   0.0000       0.665298        18.1037 
  95   0.0000       0.687359        18.7040 
  96   0.0000       0.701314        19.0837 
  97   0.0000       0.714528        19.4433 
  98   0.0000       0.719747        19.5853 
  99   0.0000       0.725563        19.7436 
 100   0.0000       0.737925        20.0799 
 101   0.0000       0.739664        20.1273 
 102   0.0000       0.746502        20.3133 
 103   0.0000       0.756534        20.5863 
 104   0.0000       0.763837        20.7851 
 105   0.0000       0.766340        20.8532 
 106   0.0000       0.769205        20.9311 
 107   0.0000       0.772727        21.0270 
 108   0.0000       0.778397        21.1813 
 109   0.0000       0.785707        21.3802 
 110   0.0000       0.793499        21.5922 
 111   0.0000       0.797226        21.6936 
 112   0.0000       0.805090        21.9076 
 113   0.0000       0.810825        22.0637 
 114   0.0000       0.814650        22.1678 
 115   0.0000       0.824045        22.4234 
 116   0.0000       0.829440        22.5702 
 117   0.0000       0.842883        22.9360 
 118   0.0000       0.844509        22.9803 
 119   0.0000       0.861142        23.4329 
 120   0.0000       0.896328        24.3903 
 121   0.0000       0.926000        25.1977 
 122   0.0000       0.957401        26.0522 
 123   0.0000       0.972906        26.4741 
 124   0.0000       0.981230        26.7006 
 125   0.0000       1.000271        27.2188 
 126   0.0000       1.036852        28.2142 
 127   0.0000       1.062984        28.9253 
 128   0.0000       1.077542        29.3214 
 129   0.0000       1.086105        29.5544 
 130   0.0000       1.087622        29.5957 
 131   0.0000       1.112728        30.2789 
 132   0.0000       1.137929        30.9646 
 133   0.0000       1.150881        31.3171 
 134   0.0000       1.191341        32.4180 
 135   0.0000       1.199278        32.6340 
 136   0.0000       1.231522        33.5114 
 137   0.0000       1.262579        34.3565 
 138   0.0000       1.294692        35.2304 
 139   0.0000       1.327207        36.1152 
 140   0.0000       1.346351        36.6361 
 141   0.0000       1.364658        37.1342 
 142   0.0000       1.393074        37.9075 
 143   0.0000       1.415379        38.5144 
 144   0.0000       1.435919        39.0733 
 145   0.0000       1.457195        39.6523 
 146   0.0000       1.461845        39.7788 
 147   0.0000       1.486166        40.4406 
 148   0.0000       1.516157        41.2567 
 149   0.0000       1.536915        41.8216 
 150   0.0000       1.548761        42.1439 
 151   0.0000       1.566340        42.6223 
 152   0.0000       1.612319        43.8734 
 153   0.0000       1.614480        43.9322 
 154   0.0000       1.632629        44.4261 
 155   0.0000       1.652179        44.9581 
 156   0.0000       1.681392        45.7530 
 157   0.0000       1.714684        46.6589 
 158   0.0000       1.718584        46.7651 
 159   0.0000       1.747729        47.5581 
 160   0.0000       1.776268        48.3347 
 161   0.0000       1.802293        49.0429 
 162   0.0000       1.816094        49.4184 
 163   0.0000       1.837746        50.0076 
 164   0.0000       1.839063        50.0435 
 165   0.0000       1.853071        50.4246 
 166   0.0000       1.861052        50.6418 
 167   0.0000       1.868239        50.8374 
 168   0.0000       1.872519        50.9538 
 169   0.0000       1.878313        51.1115 
 170   0.0000       1.887323        51.3567 
 171   0.0000       1.890019        51.4300 
 172   0.0000       1.913860        52.0788 
 173   0.0000       1.920892        52.2701 
 174   0.0000       1.927402        52.4473 
 175   0.0000       1.931563        52.5605 
 176   0.0000       1.953847        53.1669 
 177   0.0000       1.955399        53.2091 
 178   0.0000       1.962894        53.4131 
 179   0.0000       1.972185        53.6659 
 180   0.0000       1.984333        53.9965 
 181   0.0000       1.996786        54.3353 
 182   0.0000       2.010881        54.7189 
 183   0.0000       2.014033        54.8046 
 184   0.0000       2.036239        55.4089 
 185   0.0000       2.054701        55.9113 
 186   0.0000       2.073165        56.4137 
 187   0.0000       2.091923        56.9241 
 188   0.0000       2.101020        57.1717 
 189   0.0000       2.110881        57.4400 
 190   0.0000       2.118928        57.6590 
 191   0.0000       2.148756        58.4706 
 192   0.0000       2.162399        58.8419 
 193   0.0000       2.177106        59.2421 
 194   0.0000       2.216894        60.3247 
 195   0.0000       2.240476        60.9664 
 196   0.0000       2.250770        61.2466 
 197   0.0000       2.280604        62.0584 
 198   0.0000       2.308057        62.8054 
 199   0.0000       2.321498        63.1712 
 200   0.0000       2.356423        64.1215 
 201   0.0000       2.403806        65.4109 
 202   0.0000       2.406196        65.4759 
 203   0.0000       2.412208        65.6395 
 204   0.0000       2.452127        66.7258 
 205   0.0000       2.468027        67.1584 
 206   0.0000       2.483503        67.5796 
 207   0.0000       2.504705        68.1565 
 208   0.0000       2.514029        68.4102 
 209   0.0000       2.550465        69.4017 
 210   0.0000       2.584540        70.3289 
 211   0.0000       2.597820        70.6903 
 212   0.0000       2.605087        70.8880 
 213   0.0000       2.618015        71.2398 
 214   0.0000       2.643692        71.9385 
 215   0.0000       2.657005        72.3008 
 216   0.0000       2.661644        72.4270 
 217   0.0000       2.712850        73.8204 
 218   0.0000       2.765535        75.2540 
 219   0.0000       2.798998        76.1646 
 220   0.0000       2.807132        76.3859 
 221   0.0000       2.857054        77.7444 
 222   0.0000       2.888578        78.6022 
 223   0.0000       2.901082        78.9425 
 224   0.0000       2.914559        79.3092 
 225   0.0000       2.918259        79.4099 
 226   0.0000       2.952723        80.3477 
 227   0.0000       2.965909        80.7065 
 228   0.0000       2.989555        81.3499 
 229   0.0000       3.013674        82.0062 
 230   0.0000       3.021850        82.2287 
 231   0.0000       3.041959        82.7759 
 232   0.0000       3.044972        82.8579 
 233   0.0000       3.055276        83.1383 
 234   0.0000       3.067402        83.4682 
 235   0.0000       3.072448        83.6056 
 236   0.0000       3.100242        84.3619 
 237   0.0000       3.112822        84.7042 
 238   0.0000       3.136452        85.3472 
 239   0.0000       3.164143        86.1007 
 240   0.0000       3.175029        86.3969 
 241   0.0000       3.227678        87.8296 
 242   0.0000       3.253802        88.5405 
 243   0.0000       3.279130        89.2297 
 244   0.0000       3.401954        92.5719 
 245   0.0000       3.404885        92.6516 
 246   0.0000       3.471963        94.4769 
 247   0.0000       3.509044        95.4859 
 248   0.0000       3.514927        95.6460 
 249   0.0000       3.638550        99.0100 
 250   0.0000       3.655964        99.4838 
 251   0.0000       3.794856       103.2633 

                    ********************************
                    * MULLIKEN POPULATION ANALYSIS *
                    ********************************

-----------------------
MULLIKEN ATOMIC CHARGES
-----------------------
   0 C :   -0.083382
   1 C :    0.127522
   2 H :    0.041281
   3 H :    0.026105
   4 O :   -0.400051
   5 C :    0.279549
   6 O :   -0.393964
   7 C :    0.113710
   8 C :   -0.039790
   9 H :    0.036080
  10 H :    0.036843
  11 H :    0.044647
  12 H :    0.021568
  13 H :    0.033477
  14 C :    0.119350
  15 C :    0.038493
  16 O :   -0.200432
  17 C :   -0.029300
  18 N :   -0.102720
  19 N :    0.034147
  20 H :    0.035167
  21 H :    0.060031
  22 H :    0.048375
  23 H :    0.021661
  24 H :    0.054698
  25 H :    0.036628
  26 H :    0.040307
Sum of atomic charges:   -0.0000000

--------------------------------
MULLIKEN REDUCED ORBITAL CHARGES
--------------------------------
  0 C s       :     3.016056  s :     3.016056
      pz      :     1.039236  p :     3.040194
      px      :     0.977473
      py      :     1.023485
      dz2     :     0.003822  d :     0.027133
      dxz     :     0.007358
      dyz     :     0.005461
      dx2y2   :     0.007936
      dxy     :     0.002555
  1 C s       :     3.038277  s :     3.038277
      pz      :     0.996764  p :     2.771406
      px      :     0.995866
      py      :     0.778776
      dz2     :     0.007581  d :     0.062795
      dxz     :     0.010463
      dyz     :     0.014738
      dx2y2   :     0.016443
      dxy     :     0.013571
  2 H s       :     0.938104  s :     0.938104
      pz      :     0.009407  p :     0.020615
      px      :     0.004787
      py      :     0.006420
  3 H s       :     0.952681  s :     0.952681
      pz      :     0.011314  p :     0.021214
      px      :     0.006961
      py      :     0.002938
  4 O s       :     3.757596  s :     3.757596
      pz      :     1.588983  p :     4.626801
      px      :     1.813103
      py      :     1.224716
      dz2     :     0.002786  d :     0.015654
      dxz     :     0.001815
      dyz     :     0.006634
      dx2y2   :     0.002343
      dxy     :     0.002076
  5 C s       :     2.997333  s :     2.997333
      pz      :     0.940298  p :     2.618038
      px      :     0.821421
      py      :     0.856318
      dz2     :     0.016917  d :     0.105080
      dxz     :     0.016870
      dyz     :     0.022184
      dx2y2   :     0.022574
      dxy     :     0.026535
  6 O s       :     3.760962  s :     3.760962
      pz      :     1.543674  p :     4.617338
      px      :     1.358183
      py      :     1.715481
      dz2     :     0.003949  d :     0.015663
      dxz     :     0.004139
      dyz     :     0.002589
      dx2y2   :     0.002596
      dxy     :     0.002390
  7 C s       :     3.025239  s :     3.025239
      pz      :     0.846649  p :     2.799132
      px      :     0.966404
      py      :     0.986078
      dz2     :     0.011759  d :     0.061919
      dxz     :     0.014722
      dyz     :     0.014892
      dx2y2   :     0.011456
      dxy     :     0.009091
  8 C s       :     2.998568  s :     2.998568
      pz      :     1.018911  p :     3.014099
      px      :     0.958537
      py      :     1.036651
      dz2     :     0.004463  d :     0.027123
      dxz     :     0.004890
      dyz     :     0.006364
      dx2y2   :     0.006232
      dxy     :     0.005174
  9 H s       :     0.940045  s :     0.940045
      pz      :     0.010414  p :     0.023875
      px      :     0.006905
      py      :     0.006556
 10 H s       :     0.939018  s :     0.939018
      pz      :     0.005501  p :     0.024139
      px      :     0.005439
      py      :     0.013199
 11 H s       :     0.931456  s :     0.931456
      pz      :     0.011299  p :     0.023897
      px      :     0.004265
      py      :     0.008332
 12 H s       :     0.957316  s :     0.957316
      pz      :     0.003856  p :     0.021116
      px      :     0.004381
      py      :     0.012879
 13 H s       :     0.944447  s :     0.944447
      pz      :     0.009402  p :     0.022076
      px      :     0.003657
      py      :     0.009017
 14 C s       :     2.922063  s :     2.922063
      pz      :     1.002766  p :     2.926588
      px      :     0.902228
      py      :     1.021594
      dz2     :     0.006937  d :     0.031999
      dxz     :     0.003478
      dyz     :     0.006472
      dx2y2   :     0.007266
      dxy     :     0.007845
 15 C s       :     3.110496  s :     3.110496
      pz      :     0.842302  p :     2.777303
      px      :     0.945440
      py      :     0.989562
      dz2     :     0.016645  d :     0.073707
      dxz     :     0.024915
      dyz     :     0.013224
      dx2y2   :     0.009556
      dxy     :     0.009367
 16 O s       :     3.772269  s :     3.772269
      pz      :     1.548985  p :     4.402634
      px      :     1.269047
      py      :     1.584602
      dz2     :     0.006055  d :     0.025529
      dxz     :     0.006880
      dyz     :     0.004045
      dx2y2   :     0.003702
      dxy     :     0.004847
 17 C s       :     3.203262  s :     3.203262
      pz      :     0.875672  p :     2.778408
      px      :     0.877102
      py      :     1.025634
      dz2     :     0.010581  d :     0.047629
      dxz     :     0.015275
      dyz     :     0.006650
      dx2y2   :     0.007823
      dxy     :     0.007302
 18 N s       :     3.554689  s :     3.554689
      pz      :     1.001010  p :     3.503499
      px      :     1.333005
      py      :     1.169484
      dz2     :     0.012196  d :     0.044531
      dxz     :     0.009357
      dyz     :     0.011076
      dx2y2   :     0.006229
      dxy     :     0.005672
 19 N s       :     3.724751  s :     3.724751
      pz      :     1.139078  p :     3.180621
      px      :     0.979511
      py      :     1.062032
      dz2     :     0.017674  d :     0.060482
      dxz     :     0.013072
      dyz     :     0.010461
      dx2y2   :     0.008603
      dxy     :     0.010671
 20 H s       :     0.941022  s :     0.941022
      pz      :     0.015509  p :     0.023811
      px      :     0.003178
      py      :     0.005124
 21 H s       :     0.917061  s :     0.917061
      pz      :     0.008114  p :     0.022908
      px      :     0.003656
      py      :     0.011138
 22 H s       :     0.928073  s :     0.928073
      pz      :     0.014076  p :     0.023551
      px      :     0.004846
      py      :     0.004629
 23 H s       :     0.959441  s :     0.959441
      pz      :     0.012840  p :     0.018899
      px      :     0.002929
      py      :     0.003130
 24 H s       :     0.920684  s :     0.920684
      pz      :     0.009563  p :     0.024618
      px      :     0.004739
      py      :     0.010316
 25 H s       :     0.939246  s :     0.939246
      pz      :     0.006175  p :     0.024126
      px      :     0.004718
      py      :     0.013233
 26 H s       :     0.936189  s :     0.936189
      pz      :     0.011282  p :     0.023503
      px      :     0.006875
      py      :     0.005346


                     *******************************
                     * LOEWDIN POPULATION ANALYSIS *
                     *******************************

----------------------
LOEWDIN ATOMIC CHARGES
----------------------
   0 C :   -0.082738
   1 C :    0.075318
   2 H :    0.024453
   3 H :    0.012815
   4 O :   -0.165610
   5 C :    0.129629
   6 O :   -0.166978
   7 C :    0.070672
   8 C :   -0.065971
   9 H :    0.031919
  10 H :    0.028366
  11 H :    0.031563
  12 H :    0.007710
  13 H :    0.009318
  14 C :   -0.052820
  15 C :    0.027189
  16 O :    0.004578
  17 C :   -0.081821
  18 N :   -0.057285
  19 N :   -0.009669
  20 H :    0.032915
  21 H :    0.050882
  22 H :    0.046689
  23 H :    0.011866
  24 H :    0.027866
  25 H :    0.031662
  26 H :    0.027481

-------------------------------
LOEWDIN REDUCED ORBITAL CHARGES
-------------------------------
  0 C s       :     2.836794  s :     2.836794
      pz      :     1.074454  p :     3.175459
      px      :     1.029624
      py      :     1.071381
      dz2     :     0.010012  d :     0.070485
      dxz     :     0.017814
      dyz     :     0.014386
      dx2y2   :     0.021975
      dxy     :     0.006298
  1 C s       :     2.843237  s :     2.843237
      pz      :     1.048368  p :     2.939139
      px      :     1.042799
      py      :     0.847971
      dz2     :     0.017656  d :     0.142306
      dxz     :     0.023845
      dyz     :     0.034630
      dx2y2   :     0.038506
      dxy     :     0.027668
  2 H s       :     0.912177  s :     0.912177
      pz      :     0.027241  p :     0.063370
      px      :     0.014908
      py      :     0.021221
  3 H s       :     0.922622  s :     0.922622
      pz      :     0.033065  p :     0.064563
      px      :     0.021187
      py      :     0.010310
  4 O s       :     3.454097  s :     3.454097
      pz      :     1.626071  p :     4.682575
      px      :     1.786502
      py      :     1.270003
      dz2     :     0.004309  d :     0.028938
      dxz     :     0.002192
      dyz     :     0.012823
      dx2y2   :     0.005477
      dxy     :     0.004136
  5 C s       :     2.837608  s :     2.837608
      pz      :     0.993401  p :     2.802886
      px      :     0.894000
      py      :     0.915485
      dz2     :     0.037999  d :     0.229877
      dxz     :     0.035618
      dyz     :     0.051165
      dx2y2   :     0.045726
      dxy     :     0.059369
  6 O s       :     3.457139  s :     3.457139
      pz      :     1.576317  p :     4.680825
      px      :     1.389058
      py      :     1.715450
      dz2     :     0.006647  d :     0.029014
      dxz     :     0.007806
      dyz     :     0.004131
      dx2y2   :     0.005223
      dxy     :     0.005207
  7 C s       :     2.841941  s :     2.841941
      pz      :     0.917182  p :     2.947331
      px      :     0.990582
      py      :     1.039567
      dz2     :     0.027412  d :     0.140056
      dxz     :     0.030663
      dyz     :     0.035788
      dx2y2   :     0.028291
      dxy     :     0.017902
  8 C s       :     2.831971  s :     2.831971
      pz      :     1.067344  p :     3.163012
      px      :     1.021277
      py      :     1.074391
      dz2     :     0.011980  d :     0.070988
      dxz     :     0.012911
      dyz     :     0.016415
      dx2y2   :     0.017780
      dxy     :     0.011902
  9 H s       :     0.901111  s :     0.901111
      pz      :     0.028788  p :     0.066969
      px      :     0.020701
      py      :     0.017480
 10 H s       :     0.904314  s :     0.904314
      pz      :     0.014479  p :     0.067320
      px      :     0.016825
      py      :     0.036015
 11 H s       :     0.901028  s :     0.901028
      pz      :     0.031382  p :     0.067409
      px      :     0.013543
      py      :     0.022484
 12 H s       :     0.927181  s :     0.927181
      pz      :     0.012305  p :     0.065109
      px      :     0.015276
      py      :     0.037528
 13 H s       :     0.922321  s :     0.922321
      pz      :     0.030182  p :     0.068360
      px      :     0.013240
      py      :     0.024938
 14 C s       :     2.833409  s :     2.833409
      pz      :     1.070691  p :     3.133891
      px      :     1.007750
      py      :     1.055451
      dz2     :     0.018677  d :     0.085519
      dxz     :     0.009544
      dyz     :     0.016908
      dx2y2   :     0.018403
      dxy     :     0.021987
 15 C s       :     2.871869  s :     2.871869
      pz      :     0.940199  p :     2.933023
      px      :     1.008690
      py      :     0.984135
      dz2     :     0.040034  d :     0.167918
      dxz     :     0.060723
      dyz     :     0.029017
      dx2y2   :     0.019522
      dxy     :     0.018621
 16 O s       :     3.482524  s :     3.482524
      pz      :     1.579768  p :     4.466494
      px      :     1.312736
      py      :     1.573990
      dz2     :     0.011010  d :     0.046404
      dxz     :     0.012695
      dyz     :     0.005234
      dx2y2   :     0.007617
      dxy     :     0.009849
 17 C s       :     2.872278  s :     2.872278
      pz      :     1.048648  p :     3.089678
      px      :     0.990396
      py      :     1.050634
      dz2     :     0.027119  d :     0.119865
      dxz     :     0.040907
      dyz     :     0.015048
      dx2y2   :     0.018854
      dxy     :     0.017936
 18 N s       :     3.257198  s :     3.257198
      pz      :     1.159685  p :     3.710331
      px      :     1.374368
      py      :     1.176278
      dz2     :     0.031015  d :     0.089757
      dxz     :     0.019356
      dyz     :     0.021045
      dx2y2   :     0.009605
      dxy     :     0.008736
 19 N s       :     3.374956  s :     3.374956
      pz      :     1.310357  p :     3.515118
      px      :     1.102219
      py      :     1.102542
      dz2     :     0.037464  d :     0.119595
      dxz     :     0.025484
      dyz     :     0.019252
      dx2y2   :     0.015460
      dxy     :     0.021936
 20 H s       :     0.893961  s :     0.893961
      pz      :     0.044758  p :     0.073124
      px      :     0.011846
      py      :     0.016520
 21 H s       :     0.880100  s :     0.880100
      pz      :     0.023128  p :     0.069018
      px      :     0.012371
      py      :     0.033519
 22 H s       :     0.883898  s :     0.883898
      pz      :     0.039801  p :     0.069413
      px      :     0.014756
      py      :     0.014856
 23 H s       :     0.924800  s :     0.924800
      pz      :     0.039698  p :     0.063334
      px      :     0.011632
      py      :     0.012004
 24 H s       :     0.902153  s :     0.902153
      pz      :     0.027080  p :     0.069981
      px      :     0.015636
      py      :     0.027265
 25 H s       :     0.900825  s :     0.900825
      pz      :     0.016459  p :     0.067513
      px      :     0.014675
      py      :     0.036378
 26 H s       :     0.905205  s :     0.905205
      pz      :     0.031653  p :     0.067314
      px      :     0.021879
      py      :     0.013782


                      *****************************
                      * MAYER POPULATION ANALYSIS *
                      *****************************

  NA   - Mulliken gross atomic population
  ZA   - Total nuclear charge
  QA   - Mulliken gross atomic charge
  VA   - Mayer's total valence
  BVA  - Mayer's bonded valence
  FA   - Mayer's free valence

  ATOM       NA         ZA         QA         VA         BVA        FA
  0 C      6.0834     6.0000    -0.0834     3.9908     3.9908     0.0000
  1 C      5.8725     6.0000     0.1275     4.0550     4.0550    -0.0000
  2 H      0.9587     1.0000     0.0413     0.9826     0.9826    -0.0000
  3 H      0.9739     1.0000     0.0261     0.9826     0.9826    -0.0000
  4 O      8.4001     8.0000    -0.4001     2.0515     2.0515    -0.0000
  5 C      5.7205     6.0000     0.2795     4.1710     4.1710    -0.0000
  6 O      8.3940     8.0000    -0.3940     2.0676     2.0676    -0.0000
  7 C      5.8863     6.0000     0.1137     4.0089     4.0089     0.0000
  8 C      6.0398     6.0000    -0.0398     4.0124     4.0124    -0.0000
  9 H      0.9639     1.0000     0.0361     0.9900     0.9900     0.0000
 10 H      0.9632     1.0000     0.0368     1.0005     1.0005     0.0000
 11 H      0.9554     1.0000     0.0446     0.9946     0.9946    -0.0000
 12 H      0.9784     1.0000     0.0216     0.9730     0.9730    -0.0000
 13 H      0.9665     1.0000     0.0335     0.9986     0.9986     0.0000
 14 C      5.8807     6.0000     0.1193     3.8824     3.8824     0.0000
 15 C      5.9615     6.0000     0.0385     3.9535     3.9535    -0.0000
 16 O      8.2004     8.0000    -0.2004     2.2966     2.2966     0.0000
 17 C      6.0293     6.0000    -0.0293     3.9994     3.9994    -0.0000
 18 N      7.1027     7.0000    -0.1027     3.0147     3.0147    -0.0000
 19 N      6.9659     7.0000     0.0341     2.7657     2.7657    -0.0000
 20 H      0.9648     1.0000     0.0352     1.0083     1.0083     0.0000
 21 H      0.9400     1.0000     0.0600     0.9969     0.9969     0.0000
 22 H      0.9516     1.0000     0.0484     1.0039     1.0039     0.0000
 23 H      0.9783     1.0000     0.0217     0.9920     0.9920     0.0000
 24 H      0.9453     1.0000     0.0547     1.0115     1.0115    -0.0000
 25 H      0.9634     1.0000     0.0366     0.9899     0.9899     0.0000
 26 H      0.9597     1.0000     0.0403     0.9933     0.9933     0.0000

  Mayer bond orders larger than 0.100000
B(  0-C ,  1-C ) :   1.0920 B(  0-C , 24-H ) :   0.9645 B(  0-C , 25-H ) :   0.9636 
B(  0-C , 26-H ) :   0.9675 B(  1-C ,  2-H ) :   0.9656 B(  1-C ,  3-H ) :   0.9583 
B(  1-C ,  4-O ) :   0.9522 B(  4-O ,  5-C ) :   1.0259 B(  5-C ,  6-O ) :   1.0604 
B(  5-C , 14-C ) :   1.0192 B(  5-C , 23-H ) :   0.9292 B(  6-O ,  7-C ) :   0.9310 
B(  7-C ,  8-C ) :   1.1004 B(  7-C , 12-H ) :   0.9498 B(  7-C , 13-H ) :   0.9469 
B(  8-C ,  9-H ) :   0.9663 B(  8-C , 10-H ) :   0.9734 B(  8-C , 11-H ) :   0.9705 
B( 14-C , 15-C ) :   1.0432 B( 14-C , 21-H ) :   0.9100 B( 14-C , 22-H ) :   0.9232 
B( 15-C , 16-O ) :   1.1649 B( 15-C , 17-C ) :   1.5540 B( 15-C , 19-N ) :   0.1104 
B( 16-O , 19-N ) :   0.9770 B( 17-C , 18-N ) :   1.3030 B( 17-C , 20-H ) :   1.0111 
B( 18-N , 19-N ) :   1.5950 

-------
TIMINGS
-------

Total SCF time: 0 days 0 hours 3 min 22 sec 

Total time                  ....     202.462 sec
Sum of individual times     ....     202.147 sec  ( 99.8%)

Fock matrix formation       ....     199.031 sec  ( 98.3%)
  XC integration            ....       8.628 sec  (  4.3% of F)
    Basis function eval.    ....       2.537 sec  ( 29.4% of XC)
    Density eval.           ....       1.630 sec  ( 18.9% of XC)
    XC-Functional eval.     ....       2.070 sec  ( 24.0% of XC)
    XC-Potential eval.      ....       2.158 sec  ( 25.0% of XC)
Diagonalization             ....       0.065 sec  (  0.0%)
Density matrix formation    ....       0.015 sec  (  0.0%)
Population analysis         ....       0.008 sec  (  0.0%)
Initial guess               ....       0.766 sec  (  0.4%)
Orbital Transformation      ....       0.000 sec  (  0.0%)
Orbital Orthonormalization  ....       0.000 sec  (  0.0%)
DIIS solution               ....       0.024 sec  (  0.0%)
SOSCF solution              ....       0.035 sec  (  0.0%)
Grid generation             ....       2.203 sec  (  1.1%)


-------------------------------------------------------------------------------
                          DFT DISPERSION CORRECTION                            
                                                                               
                              DFTD3 V3.1  Rev 1                                
                              USING zero damping                               
-------------------------------------------------------------------------------
The omegaB97X-D3 functional is recognized. Fit by Chai et al.
Active option DFTDOPT                   ...         3   

molecular C6(AA) [au] = 6102.140801 


            DFT-D V3
 parameters
 s6 scaling factor         :     1.0000 
 rs6 scaling factor        :     1.2810 
 s8 scaling factor         :     1.0000 
 rs8 scaling factor        :     1.0940 
 Damping factor alpha6     :    14.0000 
 Damping factor alpha8     :    16.0000 
 ad hoc parameters k1-k3   :    16.0000     1.3333    -4.0000 

 Edisp/kcal,au: -6.947054670981  -0.011070835130 
 E6   /kcal   :  -3.089697060 
 E8   /kcal   :  -3.857357611 
 % E8         :  55.525079242 

-------------------------   ----------------
Dispersion correction           -0.011070835
-------------------------   ----------------


-------------------------   --------------------
FINAL SINGLE POINT ENERGY      -647.723983925755
-------------------------   --------------------

------------------------------------------------------------------------------
                         ORCA SCF GRADIENT CALCULATION
------------------------------------------------------------------------------

Gradient of the Kohn-Sham DFT energy:
Kohn-Sham wavefunction type      ... RKS
Hartree-Fock exchange scaling    ...    0.196
Number of operators              ...    1
Number of atoms                  ...   27
Basis set dimensions             ...  252
Integral neglect threshold       ... 2.5e-11
Integral primitive cutoff        ... 2.5e-12

Nuclear repulsion gradient       ... done
One Electron Gradient            ... done
Pre-screening matrix             ... done
Starting the two electron gradient:
Two electron gradient done
Exchange-correlation gradient    ... done
Dispersion correction            ... done

------------------
CARTESIAN GRADIENT
------------------

   1   C   :    0.012939303    0.002358271    0.001914841
   2   C   :   -0.005862644    0.006462904    0.002294025
   3   H   :    0.002127044   -0.004855172    0.001026457
   4   H   :    0.003585049   -0.001986814   -0.002486185
   5   O   :   -0.001908957    0.004131263   -0.006003443
   6   C   :    0.000620589    0.003239234    0.004281856
   7   O   :   -0.000948725    0.000285670    0.005743009
   8   C   :   -0.003861101   -0.002587791   -0.009888592
   9   C   :    0.014591090   -0.001003358    0.002961074
  10   H   :   -0.005685162    0.003600802    0.006146675
  11   H   :   -0.003958330   -0.007689963   -0.001713147
  12   H   :   -0.002156555    0.005294347   -0.006962352
  13   H   :    0.001617335    0.003708782    0.002573550
  14   H   :    0.000843047   -0.001593962    0.004175441
  15   C   :   -0.005055007   -0.014495129   -0.010260926
  16   C   :    0.010182190   -0.003330104    0.012148465
  17   O   :   -0.009232484    0.001318260    0.011587064
  18   C   :   -0.015304166    0.011952297   -0.016718058
  19   N   :    0.007369435   -0.003942095    0.002300550
  20   N   :    0.015432824   -0.003113219   -0.017800117
  21   H   :   -0.003578332   -0.002246937    0.013329406
  22   H   :   -0.000375874    0.005893383   -0.001745083
  23   H   :   -0.000788531    0.003039559    0.005314571
  24   H   :    0.001629014   -0.001577748   -0.000828242
  25   H   :   -0.003524688    0.004299540   -0.005408001
  26   H   :   -0.002882060   -0.008371764   -0.002684789
  27   H   :   -0.005814302    0.001209743    0.006701951

Difference to translation invariance:
           :    0.0000000000   -0.0000000000   -0.0000000000

Norm of the cartesian gradient     ...    0.0606802974
RMS gradient                       ...    0.0067422553
MAX gradient                       ...    0.0178001175

-------
TIMINGS
-------

Total SCF gradient time            ...       75.308 sec

One electron gradient       ....       0.306 sec  (  0.4%)
Prescreening matrices       ....       0.121 sec  (  0.2%)
Two electron gradient       ....      66.589 sec  ( 88.4%)
XC gradient                 ....       8.137 sec  ( 10.8%)
------------------------------------------------------------------------------
                         ORCA GEOMETRY RELAXATION STEP
------------------------------------------------------------------------------

Reading the OPT-File                    .... done
Getting information on internals        .... done
Copying old internal coords+grads       .... done
Making the new internal coordinates     .... (new redundants).... done
Validating the new internal coordinates .... (new redundants).... done
Calculating the B-matrix                .... done
Calculating the G,G- and P matrices     .... done
Transforming gradient to internals      .... done
Projecting the internal gradient        .... done
Number of atoms                         ....  27
Number of internal coordinates          .... 129
Current Energy                          ....  -647.723983926 Eh
Current gradient norm                   ....     0.060680297 Eh/bohr
Maximum allowed component of the step   ....  0.300
Current trust radius                    ....  0.300
Evaluating the initial hessian          ....  (Almloef) done
Projecting the Hessian                  .... done
Forming the augmented Hessian           .... done
Diagonalizing the augmented Hessian     .... done
Last element of RFO vector              ....  0.991388645
Lowest eigenvalues of augmented Hessian:
 -0.004720209  0.009718651  0.011630984  0.011936333  0.015075446
Length of the computed step             ....  0.132089966
The final length of the internal step   ....  0.132089966
Converting the step to cartesian space:
 Initial RMS(Int)=    0.0116298730
Transforming coordinates:
 Iter   0:  RMS(Cart)=    0.0375696382 RMS(Int)=    0.0117009481
 Iter   1:  RMS(Cart)=    0.0004181217 RMS(Int)=    0.0002612022
 Iter   2:  RMS(Cart)=    0.0000098250 RMS(Int)=    0.0000047610
 Iter   3:  RMS(Cart)=    0.0000002573 RMS(Int)=    0.0000002107
 Iter   4:  RMS(Cart)=    0.0000000069 RMS(Int)=    0.0000000045
done
Storing new coordinates                 .... done

                                .--------------------.
          ----------------------|Geometry convergence|-------------------------
          Item                value                   Tolerance       Converged
          ---------------------------------------------------------------------
          RMS gradient        0.0039219074            0.0001000000      NO
          MAX gradient        0.0160675837            0.0003000000      NO
          RMS step            0.0116298730            0.0020000000      NO
          MAX step            0.0352790011            0.0040000000      NO
          ........................................................
          Max(Bonds)      0.0187      Max(Angles)    1.69
          Max(Dihed)        1.80      Max(Improp)    0.00
          ---------------------------------------------------------------------

The optimization has not yet converged - more geometry cycles are needed


    ---------------------------------------------------------------------------
                         Redundant Internal Coordinates
                            (Angstroem and degrees)

        Definition                    Value    dE/dq     Step     New-Value
    ----------------------------------------------------------------------------
     1. B(C   1,C   0)                1.5240  0.000774 -0.0011    1.5229   
     2. B(H   2,C   1)                1.0930 -0.004441  0.0065    1.0996   
     3. B(H   3,C   1)                1.0995 -0.004344  0.0065    1.1061   
     4. B(O   4,C   1)                1.4193 -0.000130  0.0001    1.4194   
     5. B(C   5,O   4)                1.3971  0.005427 -0.0052    1.3919   
     6. B(O   6,C   5)                1.3947  0.000944 -0.0009    1.3938   
     7. B(C   7,O   6)                1.4238  0.002985 -0.0032    1.4207   
     8. B(C   8,C   7)                1.5202  0.002780 -0.0038    1.5164   
     9. B(H   9,C   8)                1.0864 -0.009011  0.0129    1.0993   
    10. B(H  10,C   8)                1.0864 -0.008786  0.0126    1.0990   
    11. B(H  11,C   8)                1.0864 -0.008936  0.0128    1.0992   
    12. B(H  12,C   7)                1.0990 -0.004545  0.0068    1.1058   
    13. B(H  13,C   7)                1.0964 -0.004327  0.0064    1.1028   
    14. B(C  14,C   5)                1.5500  0.004835 -0.0073    1.5428   
    15. B(C  15,C  14)                1.4781 -0.004192  0.0049    1.4829   
[...]
      pz      :     1.548492  p :     4.618961
      px      :     1.362130
      py      :     1.708339
      dz2     :     0.003934  d :     0.015713
      dxz     :     0.004089
      dyz     :     0.002661
      dx2y2   :     0.002642
      dxy     :     0.002388
  7 C s       :     3.025561  s :     3.025561
      pz      :     0.851003  p :     2.797465
      px      :     0.966070
      py      :     0.980392
      dz2     :     0.012049  d :     0.062898
      dxz     :     0.014733
      dyz     :     0.015146
      dx2y2   :     0.011497
      dxy     :     0.009474
  8 C s       :     3.016921  s :     3.016921
      pz      :     1.020362  p :     3.013812
      px      :     0.958483
      py      :     1.034967
      dz2     :     0.004545  d :     0.026859
      dxz     :     0.004708
      dyz     :     0.006091
      dx2y2   :     0.005944
      dxy     :     0.005572
  9 H s       :     0.937739  s :     0.937739
      pz      :     0.009789  p :     0.023191
      px      :     0.006705
      py      :     0.006698
 10 H s       :     0.935289  s :     0.935289
      pz      :     0.005170  p :     0.023312
      px      :     0.005470
      py      :     0.012672
 11 H s       :     0.928071  s :     0.928071
      pz      :     0.011324  p :     0.023098
      px      :     0.004017
      py      :     0.007757
 12 H s       :     0.957250  s :     0.957250
      pz      :     0.003865  p :     0.020860
      px      :     0.004381
      py      :     0.012614
 13 H s       :     0.945068  s :     0.945068
      pz      :     0.009531  p :     0.021590
      px      :     0.003479
      py      :     0.008581
 14 C s       :     2.936070  s :     2.936070
      pz      :     1.011935  p :     2.938581
      px      :     0.903380
      py      :     1.023266
      dz2     :     0.006831  d :     0.031856
      dxz     :     0.003717
      dyz     :     0.006316
      dx2y2   :     0.007486
      dxy     :     0.007506
 15 C s       :     3.104517  s :     3.104517
      pz      :     0.844662  p :     2.765813
      px      :     0.940489
      py      :     0.980663
      dz2     :     0.016975  d :     0.074777
      dxz     :     0.025438
      dyz     :     0.012588
      dx2y2   :     0.009757
      dxy     :     0.010019
 16 O s       :     3.773334  s :     3.773334
      pz      :     1.549443  p :     4.410205
      px      :     1.255100
      py      :     1.605662
      dz2     :     0.005999  d :     0.024921
      dxz     :     0.006580
      dyz     :     0.003841
      dx2y2   :     0.003533
      dxy     :     0.004968
 17 C s       :     3.212426  s :     3.212426
      pz      :     0.888438  p :     2.780654
      px      :     0.861992
      py      :     1.030224
      dz2     :     0.009864  d :     0.046705
      dxz     :     0.015311
      dyz     :     0.006233
      dx2y2   :     0.008027
      dxy     :     0.007270
 18 N s       :     3.569472  s :     3.569472
      pz      :     1.002126  p :     3.501624
      px      :     1.338951
      py      :     1.160547
      dz2     :     0.011940  d :     0.043297
      dxz     :     0.008684
      dyz     :     0.010768
      dx2y2   :     0.006398
      dxy     :     0.005507
 19 N s       :     3.734131  s :     3.734131
      pz      :     1.138527  p :     3.163601
      px      :     0.963799
      py      :     1.061274
      dz2     :     0.017255  d :     0.058824
      dxz     :     0.012380
      dyz     :     0.009999
      dx2y2   :     0.009001
      dxy     :     0.010189
 20 H s       :     0.930275  s :     0.930275
      pz      :     0.014924  p :     0.023285
      px      :     0.003034
      py      :     0.005327
 21 H s       :     0.912986  s :     0.912986
      pz      :     0.007693  p :     0.022425
      px      :     0.003473
      py      :     0.011258
 22 H s       :     0.924586  s :     0.924586
      pz      :     0.013809  p :     0.023205
      px      :     0.004777
      py      :     0.004619
 23 H s       :     0.960621  s :     0.960621
      pz      :     0.012835  p :     0.018896
      px      :     0.003018
      py      :     0.003044
 24 H s       :     0.920672  s :     0.920672
      pz      :     0.009042  p :     0.023770
      px      :     0.005080
      py      :     0.009648
 25 H s       :     0.937290  s :     0.937290
      pz      :     0.005819  p :     0.023475
      px      :     0.004557
      py      :     0.013099
 26 H s       :     0.933385  s :     0.933385
      pz      :     0.011774  p :     0.022864
      px      :     0.005908
      py      :     0.005182


                     *******************************
                     * LOEWDIN POPULATION ANALYSIS *
                     *******************************

----------------------
LOEWDIN ATOMIC CHARGES
----------------------
   0 C :   -0.087455
   1 C :    0.071670
   2 H :    0.024982
   3 H :    0.013584
   4 O :   -0.161202
   5 C :    0.126324
   6 O :   -0.163751
   7 C :    0.065102
   8 C :   -0.072032
   9 H :    0.033684
  10 H :    0.030285
  11 H :    0.033754
  12 H :    0.007927
  13 H :    0.010182
  14 C :   -0.056158
  15 C :    0.026211
  16 O :   -0.001841
  17 C :   -0.083588
  18 N :   -0.059409
  19 N :   -0.003327
  20 H :    0.038794
  21 H :    0.053449
  22 H :    0.048048
  23 H :    0.012401
  24 H :    0.029152
  25 H :    0.033384
  26 H :    0.029830

-------------------------------
LOEWDIN REDUCED ORBITAL CHARGES
-------------------------------
  0 C s       :     2.846039  s :     2.846039
      pz      :     1.073673  p :     3.172041
      px      :     1.029399
      py      :     1.068969
      dz2     :     0.011916  d :     0.069374
      dxz     :     0.016297
      dyz     :     0.012143
      dx2y2   :     0.021159
      dxy     :     0.007859
  1 C s       :     2.844466  s :     2.844466
      pz      :     1.043657  p :     2.940694
      px      :     1.041803
      py      :     0.855234
      dz2     :     0.020326  d :     0.143170
      dxz     :     0.021549
      dyz     :     0.032504
      dx2y2   :     0.038987
      dxy     :     0.029804
  2 H s       :     0.912640  s :     0.912640
      pz      :     0.023674  p :     0.062378
      px      :     0.016148
      py      :     0.022557
  3 H s       :     0.922897  s :     0.922897
      pz      :     0.035404  p :     0.063519
      px      :     0.018495
      py      :     0.009620
  4 O s       :     3.448017  s :     3.448017
      pz      :     1.633296  p :     4.683895
      px      :     1.782118
      py      :     1.268482
      dz2     :     0.004249  d :     0.029291
      dxz     :     0.002230
      dyz     :     0.012984
      dx2y2   :     0.005532
      dxy     :     0.004296
  5 C s       :     2.834131  s :     2.834131
      pz      :     0.997784  p :     2.805587
      px      :     0.894776
      py      :     0.913027
      dz2     :     0.038099  d :     0.233957
      dxz     :     0.035989
      dyz     :     0.051760
      dx2y2   :     0.047421
      dxy     :     0.060689
  6 O s       :     3.452102  s :     3.452102
      pz      :     1.581508  p :     4.682359
      px      :     1.391563
      py      :     1.709288
      dz2     :     0.006664  d :     0.029289
      dxz     :     0.007754
      dyz     :     0.004318
      dx2y2   :     0.005298
      dxy     :     0.005256
  7 C s       :     2.842417  s :     2.842417
      pz      :     0.921980  p :     2.949731
      px      :     0.993102
      py      :     1.034649
      dz2     :     0.028318  d :     0.142750
      dxz     :     0.030863
      dyz     :     0.036389
      dx2y2   :     0.028242
      dxy     :     0.018939
  8 C s       :     2.840952  s :     2.840952
      pz      :     1.066534  p :     3.161094
      px      :     1.022574
      py      :     1.071985
      dz2     :     0.012120  d :     0.069986
      dxz     :     0.012453
      dyz     :     0.015589
      dx2y2   :     0.016760
      dxy     :     0.013063
  9 H s       :     0.901554  s :     0.901554
      pz      :     0.027102  p :     0.064762
      px      :     0.019882
      py      :     0.017778
 10 H s       :     0.904620  s :     0.904620
      pz      :     0.013440  p :     0.065094
      px      :     0.016671
      py      :     0.034984
 11 H s       :     0.901003  s :     0.901003
      pz      :     0.031752  p :     0.065243
      px      :     0.012572
      py      :     0.020919
 12 H s       :     0.928207  s :     0.928207
      pz      :     0.012048  p :     0.063866
      px      :     0.015015
      py      :     0.036804
 13 H s       :     0.923180  s :     0.923180
      pz      :     0.030510  p :     0.066639
      px      :     0.012533
      py      :     0.023595
 14 C s       :     2.836891  s :     2.836891
      pz      :     1.070994  p :     3.134196
      px      :     1.006696
      py      :     1.056506
      dz2     :     0.018208  d :     0.085071
      dxz     :     0.010222
      dyz     :     0.016411
      dx2y2   :     0.019360
      dxy     :     0.020869
 15 C s       :     2.869442  s :     2.869442
      pz      :     0.944857  p :     2.933519
      px      :     1.008364
      py      :     0.980298
      dz2     :     0.040754  d :     0.170828
      dxz     :     0.061823
      dyz     :     0.027632
      dx2y2   :     0.020412
      dxy     :     0.020209
 16 O s       :     3.484468  s :     3.484468
      pz      :     1.580008  p :     4.472162
      px      :     1.299622
      py      :     1.592532
      dz2     :     0.010842  d :     0.045211
      dxz     :     0.012347
      dyz     :     0.004912
      dx2y2   :     0.007462
      dxy     :     0.009647
 17 C s       :     2.877515  s :     2.877515
      pz      :     1.049193  p :     3.089050
      px      :     0.982324
      py      :     1.057533
      dz2     :     0.025052  d :     0.117024
      dxz     :     0.040384
      dyz     :     0.014164
      dx2y2   :     0.019785
      dxy     :     0.017640
 18 N s       :     3.268143  s :     3.268143
      pz      :     1.155085  p :     3.704606
      px      :     1.379560
      py      :     1.169962
      dz2     :     0.029272  d :     0.086659
      dxz     :     0.017989
      dyz     :     0.020886
      dx2y2   :     0.010196
      dxy     :     0.008316
 19 N s       :     3.391187  s :     3.391187
      pz      :     1.306030  p :     3.497085
      px      :     1.089460
      py      :     1.101594
      dz2     :     0.035644  d :     0.115055
      dxz     :     0.023493
      dyz     :     0.018818
      dx2y2   :     0.016264
      dxy     :     0.020836
 20 H s       :     0.890856  s :     0.890856
      pz      :     0.042781  p :     0.070350
      px      :     0.010955
      py      :     0.016615
 21 H s       :     0.879082  s :     0.879082
      pz      :     0.021828  p :     0.067469
      px      :     0.011733
      py      :     0.033909
 22 H s       :     0.884028  s :     0.884028
      pz      :     0.038926  p :     0.067923
      px      :     0.014480
      py      :     0.014518
 23 H s       :     0.924897  s :     0.924897
      pz      :     0.039561  p :     0.062702
      px      :     0.011572
      py      :     0.011569
 24 H s       :     0.903343  s :     0.903343
      pz      :     0.025493  p :     0.067504
      px      :     0.016425
      py      :     0.025586
 25 H s       :     0.901363  s :     0.901363
      pz      :     0.015175  p :     0.065253
      px      :     0.014087
      py      :     0.035991
 26 H s       :     0.905046  s :     0.905046
      pz      :     0.033067  p :     0.065125
      px      :     0.018940
      py      :     0.013118


                      *****************************
                      * MAYER POPULATION ANALYSIS *
                      *****************************

  NA   - Mulliken gross atomic population
  ZA   - Total nuclear charge
  QA   - Mulliken gross atomic charge
  VA   - Mayer's total valence
  BVA  - Mayer's bonded valence
  FA   - Mayer's free valence

  ATOM       NA         ZA         QA         VA         BVA        FA
  0 C      6.0956     6.0000    -0.0956     3.9906     3.9906    -0.0000
  1 C      5.8697     6.0000     0.1303     4.0524     4.0524     0.0000
  2 H      0.9580     1.0000     0.0420     0.9816     0.9816     0.0000
  3 H      0.9760     1.0000     0.0240     0.9835     0.9835     0.0000
  4 O      8.3949     8.0000    -0.3949     2.0570     2.0570    -0.0000
  5 C      5.7076     6.0000     0.2924     4.1792     4.1792    -0.0000
  6 O      8.3906     8.0000    -0.3906     2.0698     2.0698     0.0000
  7 C      5.8859     6.0000     0.1141     4.0118     4.0118    -0.0000
  8 C      6.0576     6.0000    -0.0576     4.0113     4.0113     0.0000
  9 H      0.9609     1.0000     0.0391     0.9886     0.9886     0.0000
 10 H      0.9586     1.0000     0.0414     0.9975     0.9975     0.0000
 11 H      0.9512     1.0000     0.0488     0.9934     0.9934    -0.0000
 12 H      0.9781     1.0000     0.0219     0.9722     0.9722     0.0000
 13 H      0.9667     1.0000     0.0333     0.9946     0.9946     0.0000
 14 C      5.9065     6.0000     0.0935     3.8809     3.8809    -0.0000
 15 C      5.9451     6.0000     0.0549     3.9498     3.9498     0.0000
 16 O      8.2085     8.0000    -0.2085     2.2938     2.2938     0.0000
 17 C      6.0398     6.0000    -0.0398     3.9856     3.9856    -0.0000
 18 N      7.1144     7.0000    -0.1144     3.0057     3.0057    -0.0000
 19 N      6.9566     7.0000     0.0434     2.7624     2.7624     0.0000
 20 H      0.9536     1.0000     0.0464     1.0059     1.0059    -0.0000
 21 H      0.9354     1.0000     0.0646     0.9961     0.9961    -0.0000
 22 H      0.9478     1.0000     0.0522     1.0028     1.0028     0.0000
 23 H      0.9795     1.0000     0.0205     0.9927     0.9927     0.0000
 24 H      0.9444     1.0000     0.0556     1.0083     1.0083     0.0000
 25 H      0.9608     1.0000     0.0392     0.9886     0.9886    -0.0000
 26 H      0.9562     1.0000     0.0438     0.9921     0.9921     0.0000

  Mayer bond orders larger than 0.100000
B(  0-C ,  1-C ) :   1.0932 B(  0-C , 24-H ) :   0.9648 B(  0-C , 25-H ) :   0.9639 
B(  0-C , 26-H ) :   0.9676 B(  1-C ,  2-H ) :   0.9648 B(  1-C ,  3-H ) :   0.9557 
B(  1-C ,  4-O ) :   0.9544 B(  4-O ,  5-C ) :   1.0358 B(  5-C ,  6-O ) :   1.0602 
B(  5-C , 14-C ) :   1.0220 B(  5-C , 23-H ) :   0.9286 B(  6-O ,  7-C ) :   0.9355 
B(  7-C ,  8-C ) :   1.1000 B(  7-C , 12-H ) :   0.9481 B(  7-C , 13-H ) :   0.9454 
B(  8-C ,  9-H ) :   0.9662 B(  8-C , 10-H ) :   0.9728 B(  8-C , 11-H ) :   0.9700 
B( 14-C , 15-C ) :   1.0322 B( 14-C , 21-H ) :   0.9113 B( 14-C , 22-H ) :   0.9248 
B( 15-C , 16-O ) :   1.1687 B( 15-C , 17-C ) :   1.5647 B( 15-C , 19-N ) :   0.1064 
B( 16-O , 19-N ) :   0.9684 B( 17-C , 18-N ) :   1.2824 B( 17-C , 20-H ) :   1.0082 
B( 18-N , 19-N ) :   1.6034 

-------
TIMINGS
-------

Total SCF time: 0 days 0 hours 1 min 49 sec 

Total time                  ....     109.212 sec
Sum of individual times     ....     108.970 sec  ( 99.8%)

Fock matrix formation       ....     106.687 sec  ( 97.7%)
  XC integration            ....       5.794 sec  (  5.4% of F)
    Basis function eval.    ....       1.778 sec  ( 30.7% of XC)
    Density eval.           ....       1.118 sec  ( 19.3% of XC)
    XC-Functional eval.     ....       1.452 sec  ( 25.1% of XC)
    XC-Potential eval.      ....       1.282 sec  ( 22.1% of XC)
Diagonalization             ....       0.009 sec  (  0.0%)
Density matrix formation    ....       0.010 sec  (  0.0%)
Population analysis         ....       0.008 sec  (  0.0%)
Initial guess               ....       0.009 sec  (  0.0%)
Orbital Transformation      ....       0.000 sec  (  0.0%)
Orbital Orthonormalization  ....       0.006 sec  (  0.0%)
DIIS solution               ....       0.002 sec  (  0.0%)
SOSCF solution              ....       0.042 sec  (  0.0%)
Grid generation             ....       2.203 sec  (  2.0%)


-------------------------------------------------------------------------------
                          DFT DISPERSION CORRECTION                            
                                                                               
                              DFTD3 V3.1  Rev 1                                
                              USING zero damping                               
-------------------------------------------------------------------------------
The omegaB97X-D3 functional is recognized. Fit by Chai et al.
Active option DFTDOPT                   ...         3   

molecular C6(AA) [au] = 6114.248924 


            DFT-D V3
 parameters
 s6 scaling factor         :     1.0000 
 rs6 scaling factor        :     1.2810 
 s8 scaling factor         :     1.0000 
 rs8 scaling factor        :     1.0940 
 Damping factor alpha6     :    14.0000 
 Damping factor alpha8     :    16.0000 
 ad hoc parameters k1-k3   :    16.0000     1.3333    -4.0000 

 Edisp/kcal,au: -6.879840347192  -0.010963722299 
 E6   /kcal   :  -3.073201824 
 E8   /kcal   :  -3.806638523 
 % E8         :  55.330332256 

-------------------------   ----------------
Dispersion correction           -0.010963722
-------------------------   ----------------


-------------------------   --------------------
FINAL SINGLE POINT ENERGY      -647.726984541559
-------------------------   --------------------

                                *** OPTIMIZATION RUN DONE ***

                            ***************************************
                            *     ORCA property calculations      *
                            ***************************************

                                    ---------------------
                                    Active property flags
                                    ---------------------
   (+) Dipole Moment


------------------------------------------------------------------------------
                       ORCA ELECTRIC PROPERTIES CALCULATION
------------------------------------------------------------------------------

Dipole Moment Calculation                       ... on
Quadrupole Moment Calculation                   ... off
Polarizability Calculation                      ... off
GBWName                                         ... 010442429.gbw
Electron density file                           ... 010442429.scfp
The origin for moment calculation is the CENTER OF MASS  = (-0.022038, -0.028322 -0.004561)

-------------
DIPOLE MOMENT
-------------
                                X             Y             Z
Electronic contribution:    -22.26376      -2.57761       1.58204
Nuclear contribution   :     23.95054       2.43384      -2.24126
                        -----------------------------------------
Total Dipole Moment    :      1.68678      -0.14377      -0.65922
                        -----------------------------------------
Magnitude (a.u.)       :      1.81672
Magnitude (Debye)      :      4.61773



--------------------
Rotational spectrum 
--------------------
 
Rotational constants in cm-1:     0.049897     0.014016     0.012052 
Rotational constants in MHz :  1495.877278   420.187902   361.319940 

 Dipole components along the rotational axes: 
x,y,z [a.u.] :    -1.679443    -0.167885    -0.672126 
x,y,z [Debye]:    -4.268804    -0.426729    -1.708407 

 

Timings for individual modules:

Sum of individual times         ...     1790.530 sec (=  29.842 min)
GTO integral calculation        ...        2.668 sec (=   0.044 min)   0.1 %
SCF iterations                  ...     1189.000 sec (=  19.817 min)  66.4 %
SCF Gradient evaluation         ...      597.850 sec (=   9.964 min)  33.4 %
Geometry relaxation             ...        1.011 sec (=   0.017 min)   0.1 %
                             ****ORCA TERMINATED NORMALLY****
TOTAL RUN TIME: 0 days 0 hours 29 minutes 51 seconds 868 msec
