
                                 *****************
                                 * O   R   C   A *
                                 *****************

           --- An Ab Initio, DFT and Semiempirical electronic structure package ---

                  #######################################################
                  #                        -***-                        #
                  #          Department of theory and spectroscopy      #
                  #               Directorship: Frank Neese             #
                  #        Max Planck Institute fuer Kohlenforschung    #
                  #                Kaiser Wilhelm Platz 1               #
                  #                 D-45470 Muelheim/Ruhr               #
                  #                      Germany                        #
                  #                                                     #
                  #                  All rights reserved                #
                  #                        -***-                        #
                  #######################################################


                         Program Version 4.2.0 -  RELEASE  -


 With contributions from (in alphabetic order):
   Daniel Aravena         : Magnetic Suceptibility
   Michael Atanasov       : Ab Initio Ligand Field Theory (pilot matlab implementation)
   Alexander A. Auer      : GIAO ZORA, VPT2
   Ute Becker             : Parallelization
   Giovanni Bistoni       : ED, misc. LED, open-shell LED, HFLED
   Martin Brehm           : Molecular dynamics
   Dmytro Bykov           : SCF Hessian
   Vijay G. Chilkuri      : MRCI spin determinant printing, contributions to CSF-ICE
   Dipayan Datta          : RHF DLPNO-CCSD density
   Achintya Kumar Dutta   : EOM-CC, STEOM-CC
   Dmitry Ganyushin       : Spin-Orbit,Spin-Spin,Magnetic field MRCI
   Miquel Garcia          : C-PCM Hessian, Gaussian charge scheme
   Yang Guo               : DLPNO-NEVPT2, CIM, IAO-localization
   Andreas Hansen         : Spin unrestricted coupled pair/coupled cluster methods
   Benjamin Helmich-Paris : CASSCF linear response (MC-RPA)
   Lee Huntington         : MR-EOM, pCC
   Robert Izsak           : Overlap fitted RIJCOSX, COSX-SCS-MP3, EOM
   Christian Kollmar      : KDIIS, OOCD, Brueckner-CCSD(T), CCSD density
   Simone Kossmann        : Meta GGA functionals, TD-DFT gradient, OOMP2, MP2 Hessian
   Martin Krupicka        : AUTO-CI
   Lucas Lang             : DCDCAS
   Dagmar Lenk            : GEPOL surface, SMD
   Dimitrios Liakos       : Extrapolation schemes; Compound Job, initial MDCI parallelization
   Dimitrios Manganas     : Further ROCIS development; embedding schemes
   Dimitrios Pantazis     : SARC Basis sets
   Taras Petrenko         : DFT Hessian,TD-DFT gradient, ASA, ECA, R-Raman, ABS, FL, XAS/XES, NRVS
   Peter Pinski           : DLPNO-MP2, DLPNO-MP2 Gradient
   Christoph Reimann      : Effective Core Potentials
   Marius Retegan         : Local ZFS, SOC
   Christoph Riplinger    : Optimizer, TS searches, QM/MM, DLPNO-CCSD(T), (RO)-DLPNO pert. Triples
   Tobias Risthaus        : Range-separated hybrids, TD-DFT gradient, RPA, STAB
   Michael Roemelt        : Original ROCIS implementation
   Masaaki Saitow         : Open-shell DLPNO-CCSD energy and density
   Barbara Sandhoefer     : DKH picture change effects
   Avijit Sen             : IP-ROCIS
   Kantharuban Sivalingam : CASSCF convergence, NEVPT2, FIC-MRCI
   Bernardo de Souza      : ESD, SOC TD-DFT
   Georgi Stoychev        : AutoAux, RI-MP2 NMR
   Willem Van den Heuvel  : Paramagnetic NMR
   Boris Wezisla          : Elementary symmetry handling
   Frank Wennmohs         : Technical directorship


 We gratefully acknowledge several colleagues who have allowed us to
 interface, adapt or use parts of their codes:
   Stefan Grimme, W. Hujo, H. Kruse,             : VdW corrections, initial TS optimization,
                  C. Bannwarth                     DFT functionals, gCP, sTDA/sTD-DF
   Ed Valeev, F. Pavosevic, A. Kumar             : LibInt (2-el integral package), F12 methods
   Garnet Chan, S. Sharma, J. Yang, R. Olivares  : DMRG
   Ulf Ekstrom                                   : XCFun DFT Library
   Mihaly Kallay                                 : mrcc  (arbitrary order and MRCC methods)
   Andreas Klamt, Michael Diedenhofen            : otool_cosmo (COSMO solvation model)
   Jiri Pittner, Ondrej Demel                    : Mk-CCSD
   Frank Weinhold                                : gennbo (NPA and NBO analysis)
   Christopher J. Cramer and Donald G. Truhlar   : smd solvation model
   Lars Goerigk                                  : TD-DFT with DH, B97 family of functionals
   V. Asgeirsson, H. Jonsson                     : NEB implementation
   FAccTs GmbH                                   : IRC, NEB, NEB-TS, Multilevel, MM, QM/MM, CI optimization
   S Lehtola, MJT Oliveira, MAL Marques          : LibXC Library


 Your calculation uses the libint2 library for the computation of 2-el integrals
 For citations please refer to: http://libint.valeyev.net

 Your ORCA version has been built with support for libXC version: 4.2.3
 For citations please refer to: https://tddft.org/programs/libxc/

 This ORCA versions uses:
   CBLAS   interface :  Fast vector & matrix operations
   LAPACKE interface :  Fast linear algebra routines
   SCALAPACK package :  Parallel linear algebra routines


Your calculation utilizes the atom-pairwise dispersion correction
with the zero-damping scheme (D30)
Cite in your paper:
S.Grimme, J.Antony, S.Ehrlich and H.Krieg, J.Chem.Phys., 132, (2010), 154104 
   

XCFun DFT library Copyright 2009-2010 Ulf Ekstrom and contributors.
See http://admol.org/xcfun for more information. This is free soft-
ware; see the source code for copying conditions. There is ABSOLUTELY
NO WARRANTY; not even for MERCHANTABILITY or FITNESS FOR A PARTICULAR
PURPOSE. For details see the documentation. Scientific users of this 
library should cite U. Ekstrom, L. Visscher, R. Bast, A. J. Thorvald-
sen and K. Ruud; J.Chem.Theor.Comp. 2010, DOI: 10.1021/ct100117s
XCFun Version 0.99 
----- Orbital basis set information -----
Your calculation utilizes the basis: def2-SVP
   F. Weigend and R. Ahlrichs, Phys. Chem. Chem. Phys. 7, 3297 (2005).

================================================================================
                                        WARNINGS
                       Please study these warnings very carefully!
================================================================================


WARNING: Geometry Optimization
  ===> : Switching off AutoStart
         For restart on a previous wavefunction, please use MOREAD

INFO   : the flag for use of LIBINT has been found!

================================================================================
                                       INPUT FILE
================================================================================
NAME = 014597325.inp
|  1> # ORCA input file
|  2> # -32.24236961
|  3> ! wB97X-D3 def2-SVP Opt
|  4> * xyz 0 1
|  5>    C       -3.03220        -0.69490        -0.68130
|  6>    C       -2.35860         0.06170         0.46090
|  7>    H       -2.93940        -0.05810         1.37890
|  8>    O       -1.07850        -0.45380         0.80180
|  9>    C       -0.03420        -0.17720        -0.10010
| 10>    C        0.43310         1.28940        -0.14760
| 11>    O       -0.27510         2.26330        -0.20840
| 12>    C        1.90180         1.25380        -0.11340
| 13>    C        2.34290         0.01910         0.11590
| 14>    C        1.22800        -0.96170         0.32170
| 15>    O        1.45890        -2.14120        -0.40260
| 16>    H        0.74660        -2.76210        -0.21510
| 17>    H        1.13680        -1.18260         1.39840
| 18>    H        3.36630        -0.30970         0.16100
| 19>    H        2.49670         2.13920        -0.25250
| 20>    H       -0.30140        -0.46950        -1.12870
| 21>    H       -2.28840         1.12730         0.22440
| 22>    H       -4.05600        -0.34720        -0.78500
| 23>    H       -3.04250        -1.76230        -0.47160
| 24>    H       -2.51870        -0.52620        -1.62510
| 25> *
| 26> 
| 27>                          ****END OF INPUT****
================================================================================

                       *****************************
                       * Geometry Optimization Run *
                       *****************************

Geometry optimization settings:
Update method            Update   .... BFGS
Choice of coordinates    CoordSys .... Z-matrix Internals
Initial Hessian          InHess   .... Almoef's Model

Convergence Tolerances:
Energy Change            TolE     ....  5.0000e-06 Eh
Max. Gradient            TolMAXG  ....  3.0000e-04 Eh/bohr
RMS Gradient             TolRMSG  ....  1.0000e-04 Eh/bohr
Max. Displacement        TolMAXD  ....  4.0000e-03 bohr
RMS Displacement         TolRMSD  ....  2.0000e-03 bohr
Strict Convergence                ....  False
------------------------------------------------------------------------------
                        ORCA OPTIMIZATION COORDINATE SETUP
------------------------------------------------------------------------------

The optimization will be done in new redundant internal coordinates
Making redundant internal coordinates   ...  (new redundants) done
Evaluating the initial hessian          ...  (Almloef) done
Evaluating the coordinates              ...  done
Calculating the B-matrix                .... done
Calculating the G-matrix                .... done
Diagonalizing the G-matrix              .... done
Small eigenvalue found = 1.943e-02
Small eigenvalue found = 2.679e-02
The first mode is                       ....   48
The number of degrees of freedom        ....   54

    -----------------------------------------------------------------
                    Redundant Internal Coordinates


    -----------------------------------------------------------------
         Definition                    Initial Value    Approx d2E/dq
    -----------------------------------------------------------------
      1. B(C   1,C   0)                  1.5267         0.378136   
      2. B(H   2,C   1)                  1.0929         0.356299   
      3. B(O   3,C   1)                  1.4215         0.498482   
      4. B(C   4,O   3)                  1.4073         0.525139   
      5. B(C   5,C   4)                  1.5400         0.360125   
      6. B(O   6,C   5)                  1.2057         1.101301   
      7. B(C   7,C   5)                  1.4695         0.466503   
      8. B(C   8,C   7)                  1.3310         0.775938   
      9. B(C   9,C   8)                  1.4991         0.418470   
     10. B(C   9,C   4)                  1.5448         0.353765   
     11. B(O  10,C   9)                  1.4033         0.532986   
     12. B(H  11,O  10)                  0.9634         0.513595   
     13. B(H  12,C   9)                  1.1029         0.343428   
     14. B(H  13,C   8)                  1.0759         0.379289   
     15. B(H  14,C   7)                  1.0757         0.379486   
     16. B(H  15,C   4)                  1.1022         0.344313   
     17. B(H  16,C   1)                  1.0938         0.355129   
     18. B(H  17,C   0)                  1.0862         0.365171   
     19. B(H  18,C   0)                  1.0879         0.362952   
     20. B(H  19,C   0)                  1.0876         0.363273   
     21. A(H  17,C   0,H  19)          108.2109         0.291882   
     22. A(C   1,C   0,H  17)          109.1873         0.325714   
     23. A(H  18,C   0,H  19)          108.9014         0.291602   
     24. A(C   1,C   0,H  19)          111.3487         0.325435   
     25. A(H  17,C   0,H  18)          108.8789         0.291841   
     26. A(C   1,C   0,H  18)          110.2564         0.325388   
     27. A(H   2,C   1,H  16)          108.8155         0.289723   
     28. A(C   0,C   1,H  16)          110.4482         0.324225   
     29. A(O   3,C   1,H  16)          110.3261         0.337345   
     30. A(C   0,C   1,H   2)          109.8542         0.324400   
     31. A(C   0,C   1,O   3)          113.3927         0.380250   
     32. A(H   2,C   1,O   3)          103.7321         0.337530   
     33. A(C   1,O   3,C   4)          116.3135         0.400142   
     34. A(C   9,C   4,H  15)          108.5544         0.319088   
     35. A(C   5,C   4,H  15)          107.2977         0.320018   
     36. A(O   3,C   4,H  15)          111.4728         0.338538   
     37. A(C   5,C   4,C   9)          104.1297         0.357749   
     38. A(O   3,C   4,C   5)          115.6024         0.380467   
     39. A(O   3,C   4,C   9)          109.3600         0.379294   
     40. A(C   4,C   5,C   7)          106.2295         0.375114   
     41. A(C   4,C   5,O   6)          126.3398         0.433657   
     42. A(O   6,C   5,C   7)          127.4294         0.454449   
     43. A(C   8,C   7,H  14)          127.0500         0.369971   
     44. A(C   5,C   7,H  14)          121.9893         0.339407   
     45. A(C   5,C   7,C   8)          110.9586         0.429404   
     46. A(C   7,C   8,C   9)          112.5875         0.421134   
     47. A(C   9,C   8,H  13)          120.1149         0.333295   
     48. A(C   7,C   8,H  13)          127.2976         0.369938   
     49. A(C   8,C   9,O  10)          110.8975         0.391557   
     50. A(C   4,C   9,O  10)          114.8571         0.380270   
     51. A(C   4,C   9,C   8)          103.7636         0.367040   
     52. A(O  10,C   9,H  12)          110.4351         0.339231   
     53. A(C   8,C   9,H  12)          109.0600         0.327865   
     54. A(C   4,C   9,H  12)          107.4997         0.318954   
     55. A(C   9,O  10,H  11)          108.6400         0.359901   
     56. D(H   2,C   1,C   0,H  17)     55.9603         0.011402   
     57. D(H  16,C   1,C   0,H  18)    176.3424         0.011402   
     58. D(O   3,C   1,C   0,H  18)     51.9252         0.011402   
     59. D(O   3,C   1,C   0,H  19)    -69.0711         0.011402   
     60. D(O   3,C   1,C   0,H  17)    171.5034         0.011402   
     61. D(H   2,C   1,C   0,H  19)    175.3858         0.011402   
     62. D(H  16,C   1,C   0,H  19)     55.3461         0.011402   
     63. D(H  16,C   1,C   0,H  17)    -64.0794         0.011402   
     64. D(H   2,C   1,C   0,H  18)    -63.6179         0.011402   
     65. D(C   4,O   3,C   1,H  16)    -50.7652         0.019641   
     66. D(C   4,O   3,C   1,C   0)     73.7182         0.019641   
     67. D(C   4,O   3,C   1,H   2)   -167.1616         0.019641   
     68. D(H  15,C   4,O   3,C   1)    -52.4650         0.021882   
     69. D(C   9,C   4,O   3,C   1)   -172.5080         0.021882   
     70. D(C   5,C   4,O   3,C   1)     70.4087         0.021882   
     71. D(C   7,C   5,C   4,C   9)     13.9934         0.009752   
     72. D(C   7,C   5,C   4,O   3)    133.9727         0.009752   
     73. D(O   6,C   5,C   4,H  15)     78.6440         0.009752   
     74. D(C   7,C   5,C   4,H  15)   -100.9720         0.009752   
     75. D(O   6,C   5,C   4,C   9)   -166.3906         0.009752   
     76. D(O   6,C   5,C   4,O   3)    -46.4113         0.009752   
     77. D(H  14,C   7,C   5,O   6)     -6.9964         0.014820   
     78. D(H  14,C   7,C   5,C   4)    172.6141         0.014820   
     79. D(C   8,C   7,C   5,O   6)    172.5052         0.014820   
     80. D(C   8,C   7,C   5,C   4)     -7.8843         0.014820   
     81. D(H  13,C   8,C   7,H  14)     -2.7130         0.043229   
     82. D(H  13,C   8,C   7,C   5)    177.8167         0.043229   
     83. D(C   9,C   8,C   7,H  14)    177.3751         0.043229   
     84. D(C   9,C   8,C   7,C   5)     -2.0953         0.043229   
     85. D(C   8,C   9,C   4,C   5)    -14.7002         0.010066   
     86. D(C   8,C   9,C   4,O   3)   -138.8088         0.010066   
     87. D(H  12,C   9,C   8,H  13)     76.7551         0.012952   
     88. D(O  10,C   9,C   8,H  13)    -45.0697         0.012952   
     89. D(O  10,C   9,C   8,C   7)    134.8494         0.012952   
     90. D(C   4,C   9,C   8,H  13)   -168.9031         0.012952   
     91. D(C   4,C   9,C   8,C   7)     11.0159         0.012952   
     92. D(H  12,C   9,C   4,H  15)   -145.1737         0.010066   
     93. D(H  12,C   9,C   4,C   5)    100.7521         0.010066   
     94. D(H  12,C   9,C   4,O   3)    -23.3565         0.010066   
     95. D(O  10,C   9,C   4,H  15)    -21.8387         0.010066   
     96. D(O  10,C   9,C   4,C   5)   -135.9128         0.010066   
     97. D(H  12,C   9,C   8,C   7)   -103.3258         0.012952   
     98. D(O  10,C   9,C   4,O   3)     99.9786         0.010066   
     99. D(C   8,C   9,C   4,H  15)     99.3740         0.010066   
    100. D(H  11,O  10,C   9,H  12)     56.3635         0.022571   
    101. D(H  11,O  10,C   9,C   8)    177.3802         0.022571   
    102. D(H  11,O  10,C   9,C   4)    -65.3905         0.022571   
    -----------------------------------------------------------------

Number of atoms                         .... 20
Number of degrees of freedom            .... 102

         *************************************************************
         *                GEOMETRY OPTIMIZATION CYCLE   1            *
         *************************************************************
---------------------------------
CARTESIAN COORDINATES (ANGSTROEM)
---------------------------------
  C     -3.032200   -0.694900   -0.681300
  C     -2.358600    0.061700    0.460900
  H     -2.939400   -0.058100    1.378900
  O     -1.078500   -0.453800    0.801800
  C     -0.034200   -0.177200   -0.100100
  C      0.433100    1.289400   -0.147600
  O     -0.275100    2.263300   -0.208400
  C      1.901800    1.253800   -0.113400
  C      2.342900    0.019100    0.115900
  C      1.228000   -0.961700    0.321700
  O      1.458900   -2.141200   -0.402600
  H      0.746600   -2.762100   -0.215100
  H      1.136800   -1.182600    1.398400
  H      3.366300   -0.309700    0.161000
  H      2.496700    2.139200   -0.252500
  H     -0.301400   -0.469500   -1.128700
  H     -2.288400    1.127300    0.224400
  H     -4.056000   -0.347200   -0.785000
  H     -3.042500   -1.762300   -0.471600
  H     -2.518700   -0.526200   -1.625100

----------------------------
CARTESIAN COORDINATES (A.U.)
----------------------------
  NO LB      ZA    FRAG     MASS         X           Y           Z
   0 C     6.0000    0    12.011   -5.730028   -1.313171   -1.287470
   1 C     6.0000    0    12.011   -4.457108    0.116596    0.870975
   2 H     1.0000    0     1.008   -5.554661   -0.109793    2.605743
   3 O     8.0000    0    15.999   -2.038070   -0.857558    1.515182
   4 C     6.0000    0    12.011   -0.064629   -0.334859   -0.189162
   5 C     6.0000    0    12.011    0.818440    2.436613   -0.278924
   6 O     8.0000    0    15.999   -0.519864    4.277017   -0.393819
   7 C     6.0000    0    12.011    3.593881    2.369339   -0.214295
   8 C     6.0000    0    12.011    4.427439    0.036094    0.219019
   9 C     6.0000    0    12.011    2.320584   -1.817350    0.607925
  10 O     8.0000    0    15.999    2.756921   -4.046282   -0.760804
  11 H     1.0000    0     1.008    1.410870   -5.219613   -0.406480
  12 H     1.0000    0     1.008    2.148241   -2.234790    2.642593
  13 H     1.0000    0     1.008    6.361385   -0.585248    0.304246
  14 H     1.0000    0     1.008    4.718079    4.042502   -0.477156
  15 H     1.0000    0     1.008   -0.569563   -0.887226   -2.132934
  16 H     1.0000    0     1.008   -4.324449    2.130288    0.424055
  17 H     1.0000    0     1.008   -7.664729   -0.656113   -1.483435
  18 H     1.0000    0     1.008   -5.749492   -3.330264   -0.891195
  19 H     1.0000    0     1.008   -4.759653   -0.994374   -3.070994

--------------------------------
INTERNAL COORDINATES (ANGSTROEM)
--------------------------------
 C      0   0   0     0.000000000000     0.00000000     0.00000000
 C      1   0   0     1.526696223877     0.00000000     0.00000000
 H      2   1   0     1.092888228503   109.85420752     0.00000000
 O      2   1   3     1.421481294284   113.39268039   115.54313050
 C      4   2   1     1.407300131457   116.31346059    73.71822221
 C      5   4   2     1.539980876505   115.60235576    70.40865248
 O      6   5   4     1.205705225169   126.33981963   313.58870180
 C      6   5   4     1.469529411070   106.22947838   133.97269876
 C      8   6   5     1.331026592522   110.95857080   352.11567035
 C      9   8   6     1.499107831345   112.58745735   357.90473680
 O     10   9   8     1.403262466540   110.89747230   134.84939437
 H     11  10   9     0.963350585197   108.64004124   177.38018875
 H     10   9   8     1.102903957741   109.06001540   256.67416092
 H      9   8   6     1.075867561552   127.29759027   177.81670696
 H      8   6   5     1.075726721803   121.98929065   172.61410064
 H      5   4   2     1.102203742509   111.47283201   307.53497381
 H      2   1   3     1.093784096611   110.44822917   239.96032859
 H      1   2   3     1.086193085966   109.18729605    55.96030963
 H      1   2   3     1.087852444038   110.25644885   296.38207078
 H      1   2   3     1.087612237886   111.34869425   175.38577844

---------------------------
INTERNAL COORDINATES (A.U.)
---------------------------
 C      0   0   0     0.000000000000     0.00000000     0.00000000
 C      1   0   0     2.885037752819     0.00000000     0.00000000
 H      2   1   0     2.065259446857   109.85420752     0.00000000
 O      2   1   3     2.686210350689   113.39268039   115.54313050
 C      4   2   1     2.659411836686   116.31346059    73.71822221
 C      5   4   2     2.910142108070   115.60235576    70.40865248
 O      6   5   4     2.278452673807   126.33981963   313.58870180
 C      6   5   4     2.777008132665   106.22947838   133.97269876
 C      8   6   5     2.515275736832   110.95857080   352.11567035
 C      9   8   6     2.832903246459   112.58745735   357.90473680
 O     10   9   8     2.651781755771   110.89747230   134.84939437
 H     11  10   9     1.820468776976   108.64004124   177.38018875
 H     10   9   8     2.084186432148   109.06001540   256.67416092
 H      9   8   6     2.033095047703   127.29759027   177.81670696
 H      8   6   5     2.032828899148   121.98929065   172.61410064
 H      5   4   2     2.082863217124   111.47283201   307.53497381
 H      2   1   3     2.066952392234   110.44822917   239.96032859
 H      1   2   3     2.052607461034   109.18729605    55.96030963
 H      1   2   3     2.055743193349   110.25644885   296.38207078
 H      1   2   3     2.055289269506   111.34869425   175.38577844

---------------------
BASIS SET INFORMATION
---------------------
There are 3 groups of distinct atoms

 Group   1 Type C   : 7s4p1d contracted to 3s2p1d pattern {511/31/1}
 Group   2 Type H   : 4s1p contracted to 2s1p pattern {31/1}
 Group   3 Type O   : 7s4p1d contracted to 3s2p1d pattern {511/31/1}

Atom   0C    basis set group =>   1
Atom   1C    basis set group =>   1
Atom   2H    basis set group =>   2
Atom   3O    basis set group =>   3
Atom   4C    basis set group =>   1
Atom   5C    basis set group =>   1
Atom   6O    basis set group =>   3
Atom   7C    basis set group =>   1
Atom   8C    basis set group =>   1
Atom   9C    basis set group =>   1
Atom  10O    basis set group =>   3
Atom  11H    basis set group =>   2
Atom  12H    basis set group =>   2
Atom  13H    basis set group =>   2
Atom  14H    basis set group =>   2
Atom  15H    basis set group =>   2
Atom  16H    basis set group =>   2
Atom  17H    basis set group =>   2
Atom  18H    basis set group =>   2
Atom  19H    basis set group =>   2
------------------------------------------------------------------------------
                           ORCA GTO INTEGRAL CALCULATION
------------------------------------------------------------------------------

                         BASIS SET STATISTICS AND STARTUP INFO

 # of primitive gaussian shells          ...  170
 # of primitive gaussian functions       ...  310
 # of contracted shells                  ...   90
 # of contracted basis functions         ...  190
 Highest angular momentum                ...    2
 Maximum contraction depth               ...    5
 Integral package used                   ... LIBINT
 Integral threshhold            Thresh   ...  2.500e-11
 Primitive cut-off              TCut     ...  2.500e-12


------------------------------ INTEGRAL EVALUATION ----------------------------


 * One electron integrals 
 Pre-screening matrix                    ... done
 Shell pair data                         ... done (   0.001 sec)

-------------------------------------------------------------------------------
                                 ORCA SCF
-------------------------------------------------------------------------------

------------
SCF SETTINGS
------------
Hamiltonian:
 Density Functional     Method          .... DFT(GTOs)
 Exchange Functional    Exchange        .... WB97X-D3
 Correlation Functional Correlation     .... WB97X-D3
 Gradients option       PostSCFGGA      .... off
 Hybrid DFT is turned on
   Fraction HF Exchange ScalHFX         ....  0.195728
   Scaling of DF-GGA-X  ScalDFX         ....  0.000000
   Scaling of DF-GGA-C  ScalDFC         ....  1.000000
   Scaling of DF-LDA-C  ScalLDAC        ....  1.000000
   Perturbative correction              ....  0.000000
   Density functional embedding theory  .... OFF
 Long-range corrected/Screened/Range-Separated Hybrid DFT is turned on
   Amount of maximum screened exact exchange              ....  0.804272
   Range separation parameter mu (erf(mu*r12)/r12)        ....  0.250000


General Settings:
 Integral files         IntName         .... 014597325
 Hartree-Fock type      HFTyp           .... RHF
 Total Charge           Charge          ....    0
 Multiplicity           Mult            ....    1
 Number of Electrons    NEL             ....   76
 Basis Dimension        Dim             ....  190
 Nuclear Repulsion      ENuc            ....    545.8892373247 Eh

Convergence Acceleration:
 DIIS                   CNVDIIS         .... on
   Start iteration      DIISMaxIt       ....    12
   Startup error        DIISStart       ....  0.200000
   # of expansion vecs  DIISMaxEq       ....     5
   Bias factor          DIISBfac        ....   1.050
   Max. coefficient     DIISMaxC        ....  10.000
 Newton-Raphson         CNVNR           .... off
 SOSCF                  CNVSOSCF        .... on
   Start iteration      SOSCFMaxIt      ....   150
   Startup grad/error   SOSCFStart      ....  0.003300
 Level Shifting         CNVShift        .... on
   Level shift para.    LevelShift      ....    0.2500
   Turn off err/grad.   ShiftErr        ....    0.0010
 Zerner damping         CNVZerner       .... off
 Static damping         CNVDamp         .... on
   Fraction old density DampFac         ....    0.7000
   Max. Damping (<1)    DampMax         ....    0.9800
   Min. Damping (>=0)   DampMin         ....    0.0000
   Turn off err/grad.   DampErr         ....    0.1000
 Fernandez-Rico         CNVRico         .... off

SCF Procedure:
 Maximum # iterations   MaxIter         ....   125
 SCF integral mode      SCFMode         .... Direct
   Integral package                     .... LIBINT
 Reset frequency        DirectResetFreq ....    20
 Integral Threshold     Thresh          ....  2.500e-11 Eh
 Primitive CutOff       TCut            ....  2.500e-12 Eh

Convergence Tolerance:
 Convergence Check Mode ConvCheckMode   .... Total+1el-Energy
 Convergence forced     ConvForced      .... 0
 Energy Change          TolE            ....  1.000e-08 Eh
 1-El. energy change                    ....  1.000e-05 Eh
 Orbital Gradient       TolG            ....  1.000e-05
 Orbital Rotation angle TolX            ....  1.000e-05
 DIIS Error             TolErr          ....  5.000e-07


Diagonalization of the overlap matrix:
Smallest eigenvalue                        ... 6.561e-04
Time for diagonalization                   ...    0.095 sec
Threshold for overlap eigenvalues          ... 1.000e-08
Number of eigenvalues below threshold      ... 0
Time for construction of square roots      ...    0.002 sec
Total time needed                          ...    0.097 sec

-------------------
DFT GRID GENERATION
-------------------

General Integration Accuracy     IntAcc      ...  4.340
Radial Grid Type                 RadialGrid  ... Gauss-Chebyshev
Angular Grid (max. acc.)         AngularGrid ... Lebedev-110
Angular grid pruning method      GridPruning ... 3 (G Style)
Weight generation scheme         WeightScheme... Becke
Basis function cutoff            BFCut       ...    1.0000e-11
Integration weight cutoff        WCut        ...    1.0000e-14
Grids for H and He will be reduced by one unit

# of grid points (after initial pruning)     ...  24680 (   0.0 sec)
# of grid points (after weights+screening)   ...  22628 (   0.1 sec)
nearest neighbour list constructed           ...    0.0 sec
Grid point re-assignment to atoms done       ...    0.0 sec
Grid point division into batches done        ...    0.0 sec
Reduced shell lists constructed in    0.2 sec

Total number of grid points                  ...    22628
Total number of batches                      ...      363
Average number of points per batch           ...       62
Average number of grid points per atom       ...     1131
Average number of shells per batch           ...    60.88 (67.65%)
Average number of basis functions per batch  ...   124.74 (65.65%)
Average number of large shells per batch     ...    45.88 (75.36%)
Average number of large basis fcns per batch ...    92.51 (74.16%)
Maximum spatial batch extension              ...  20.86, 24.17, 19.83 au
Average spatial batch extension              ...   3.28,  3.66,  3.65 au

Time for grid setup =    0.229 sec

------------------------------
INITIAL GUESS: MODEL POTENTIAL
------------------------------
Loading Hartree-Fock densities                     ... done
Calculating cut-offs                               ... done
Setting up the integral package                    ... done
Initializing the effective Hamiltonian             ... done
Starting the Coulomb interaction                   ... done (   0.1 sec)
Reading the grid                                   ... done
Mapping shells                                     ... done
Starting the XC term evaluation                    ... done (   0.2 sec)
  promolecular density results
     # of electrons  =     75.996016981
     EX              =    -63.218547202
     EC              =     -2.541178822
     EX+EC           =    -65.759726024
Transforming the Hamiltonian                       ... done (   0.0 sec)
Diagonalizing the Hamiltonian                      ... done (   0.0 sec)
Back transforming the eigenvectors                 ... done (   0.0 sec)
Now organizing SCF variables                       ... done
                      ------------------
                      INITIAL GUESS DONE (   0.7 sec)
                      ------------------
--------------
SCF ITERATIONS
--------------
ITER       Energy         Delta-E        Max-DP      RMS-DP      [F,P]     Damp
               ***  Starting incremental Fock matrix formation  ***
  0   -497.6537160473   0.000000000000 0.09249405  0.00224583  0.2250894 0.7000
  1   -497.7495588054  -0.095842758053 0.07404959  0.00163150  0.1121391 0.7000
                               ***Turning on DIIS***
  2   -497.7952972155  -0.045738410159 0.11316995  0.00295124  0.0477195 0.0000
  3   -497.8729909322  -0.077693716704 0.05503554  0.00108207  0.0531885 0.0000
  4   -497.8834599504  -0.010469018176 0.00877576  0.00021945  0.0141860 0.0000
  5   -497.8839254844  -0.000465533988 0.00478506  0.00010367  0.0046182 0.0000
                      *** Initiating the SOSCF procedure ***
                           *** Shutting down DIIS ***
                      *** Re-Reading the Fockian *** 
                      *** Removing any level shift *** 
ITER      Energy       Delta-E        Grad      Rot      Max-DP    RMS-DP
  6   -497.88399061  -0.0000651289  0.001025  0.001025  0.002442  0.000054
               *** Restarting incremental Fock matrix formation ***
  7   -497.88400556  -0.0000149444  0.000513  0.001320  0.001900  0.000044
  8   -497.88401101  -0.0000054551  0.000308  0.001562  0.001260  0.000032
  9   -497.88401298  -0.0000019643  0.000106  0.000329  0.000364  0.000008
 10   -497.88401327  -0.0000002917  0.000034  0.000051  0.000276  0.000005
 11   -497.88401330  -0.0000000356  0.000023  0.000061  0.000087  0.000002
 12   -497.88401332  -0.0000000201  0.000009  0.000035  0.000016  0.000001
 13   -497.88401333  -0.0000000024  0.000004  0.000032  0.000015  0.000000
                 **** Energy Check signals convergence ****
              ***Rediagonalizing the Fockian in SOSCF/NRSCF***

               *****************************************************
               *                     SUCCESS                       *
               *           SCF CONVERGED AFTER  14 CYCLES          *
               *****************************************************

Setting up the final grid:

General Integration Accuracy     IntAcc      ...  4.670
Radial Grid Type                 RadialGrid  ... Gauss-Chebyshev
Angular Grid (max. acc.)         AngularGrid ... Lebedev-302
Angular grid pruning method      GridPruning ... 3 (G Style)
Weight generation scheme         WeightScheme... Becke
Basis function cutoff            BFCut       ...    1.0000e-11
Integration weight cutoff        WCut        ...    1.0000e-14
Grids for H and He will be reduced by one unit

# of grid points (after initial pruning)     ...  96060 (   0.0 sec)
# of grid points (after weights+screening)   ...  86572 (   0.3 sec)
nearest neighbour list constructed           ...    0.0 sec
Grid point re-assignment to atoms done       ...    0.0 sec
Grid point division into batches done        ...    0.3 sec
Reduced shell lists constructed in    0.8 sec

Total number of grid points                  ...    86572
Total number of batches                      ...     1361
Average number of points per batch           ...       63
Average number of grid points per atom       ...     4329
Average number of shells per batch           ...    55.77 (61.96%)
Average number of basis functions per batch  ...   113.35 (59.66%)
Average number of large shells per batch     ...    41.23 (73.93%)
Average number of large basis fcns per batch ...    82.50 (72.78%)
Maximum spatial batch extension              ...  17.51, 20.19, 18.93 au
Average spatial batch extension              ...   2.30,  2.42,  2.45 au

Final grid set up in    1.1 sec
Final integration                            ... done (   1.3 sec)
Change in XC energy                          ...    -0.000647065
Integrated number of electrons               ...    76.000033969
Previous integrated no of electrons          ...    75.997709801

----------------
TOTAL SCF ENERGY
----------------

Total Energy       :         -497.88466039 Eh          -13548.13038 eV

Components:
Nuclear Repulsion  :          545.88923732 Eh           14854.40133 eV
Electronic Energy  :        -1043.77389772 Eh          -28402.53171 eV
One Electron Energy:        -1760.57070279 Eh          -47907.56440 eV
Two Electron Energy:          716.79680507 Eh           19505.03268 eV

Virial components:
Potential Energy   :         -991.26937534 Eh          -26973.81102 eV
Kinetic Energy     :          493.38471494 Eh           13425.68064 eV
Virial Ratio       :            2.00912056


DFT components:
N(Alpha)           :       38.000016984455 electrons
N(Beta)            :       38.000016984455 electrons
N(Total)           :       76.000033968910 electrons
E(XC)              :      -46.567778993887 Eh       
DFET-embed. en.    :        0.000000000000 Eh       

---------------
SCF CONVERGENCE
---------------

  Last Energy change         ...   -1.1922e-09  Tolerance :   1.0000e-08
  Last MAX-Density change    ...    2.8019e-06  Tolerance :   1.0000e-07
  Last RMS-Density change    ...    8.5639e-08  Tolerance :   5.0000e-09
  Last Orbital Gradient      ...    6.0413e-07  Tolerance :   1.0000e-05
  Last Orbital Rotation      ...    2.4720e-06  Tolerance :   1.0000e-05

             **** THE GBW FILE WAS UPDATED (014597325.gbw) ****
             **** DENSITY FILE WAS UPDATED (014597325.scfp) ****
             **** ENERGY FILE WAS UPDATED (014597325.en.tmp) ****
             **** THE GBW FILE WAS UPDATED (014597325.gbw) ****
             **** DENSITY FILE WAS UPDATED (014597325.scfp) ****
----------------
ORBITAL ENERGIES
----------------

  NO   OCC          E(Eh)            E(eV) 
   0   2.0000     -19.250766      -523.8400 
   1   2.0000     -19.248613      -523.7814 
   2   2.0000     -19.237246      -523.4721 
   3   2.0000     -10.379435      -282.4388 
   4   2.0000     -10.354564      -281.7620 
   5   2.0000     -10.344801      -281.4963 
   6   2.0000     -10.328524      -281.0534 
   7   2.0000     -10.324158      -280.9346 
   8   2.0000     -10.305049      -280.4147 
   9   2.0000     -10.280330      -279.7420 
  10   2.0000      -1.164288       -31.6819 
  11   2.0000      -1.146128       -31.1877 
  12   2.0000      -1.135649       -30.9026 
  13   2.0000      -0.972835       -26.4722 
  14   2.0000      -0.873708       -23.7748 
  15   2.0000      -0.823565       -22.4104 
  16   2.0000      -0.797737       -21.7075 
  17   2.0000      -0.729384       -19.8475 
  18   2.0000      -0.690173       -18.7806 
  19   2.0000      -0.647753       -17.6263 
  20   2.0000      -0.645454       -17.5637 
  21   2.0000      -0.614380       -16.7181 
  22   2.0000      -0.586065       -15.9476 
  23   2.0000      -0.571514       -15.5517 
  24   2.0000      -0.557454       -15.1691 
  25   2.0000      -0.531982       -14.4760 
  26   2.0000      -0.523702       -14.2507 
  27   2.0000      -0.514053       -13.9881 
  28   2.0000      -0.506404       -13.7800 
  29   2.0000      -0.487122       -13.2553 
  30   2.0000      -0.476499       -12.9662 
  31   2.0000      -0.473665       -12.8891 
  32   2.0000      -0.436179       -11.8690 
  33   2.0000      -0.418902       -11.3989 
  34   2.0000      -0.400358       -10.8943 
  35   2.0000      -0.384589       -10.4652 
  36   2.0000      -0.372087       -10.1250 
  37   2.0000      -0.324516        -8.8305 
  38   0.0000       0.016502         0.4490 
  39   0.0000       0.122505         3.3335 
  40   0.0000       0.145535         3.9602 
  41   0.0000       0.159675         4.3450 
  42   0.0000       0.171698         4.6722 
  43   0.0000       0.183644         4.9972 
  44   0.0000       0.202094         5.4993 
  45   0.0000       0.210096         5.7170 
  46   0.0000       0.217468         5.9176 
  47   0.0000       0.225606         6.1390 
  48   0.0000       0.233864         6.3638 
  49   0.0000       0.237226         6.4552 
  50   0.0000       0.264605         7.2003 
  51   0.0000       0.279866         7.6155 
  52   0.0000       0.296173         8.0593 
  53   0.0000       0.318415         8.6645 
  54   0.0000       0.328823         8.9477 
  55   0.0000       0.355620         9.6769 
  56   0.0000       0.381241        10.3741 
  57   0.0000       0.392242        10.6735 
  58   0.0000       0.449577        12.2336 
  59   0.0000       0.465796        12.6750 
  60   0.0000       0.482898        13.1403 
  61   0.0000       0.519592        14.1388 
  62   0.0000       0.534085        14.5332 
  63   0.0000       0.544518        14.8171 
  64   0.0000       0.570675        15.5289 
  65   0.0000       0.577246        15.7077 
  66   0.0000       0.604669        16.4539 
  67   0.0000       0.610749        16.6193 
  68   0.0000       0.625641        17.0246 
  69   0.0000       0.641859        17.4659 
  70   0.0000       0.654470        17.8090 
  71   0.0000       0.671056        18.2604 
  72   0.0000       0.674368        18.3505 
  73   0.0000       0.695362        18.9218 
  74   0.0000       0.701511        19.0891 
  75   0.0000       0.716778        19.5045 
  76   0.0000       0.731296        19.8996 
  77   0.0000       0.734906        19.9978 
  78   0.0000       0.744926        20.2705 
  79   0.0000       0.751175        20.4405 
  80   0.0000       0.765220        20.8227 
  81   0.0000       0.775598        21.1051 
  82   0.0000       0.781999        21.2793 
  83   0.0000       0.786270        21.3955 
  84   0.0000       0.790308        21.5054 
  85   0.0000       0.798831        21.7373 
  86   0.0000       0.804985        21.9047 
  87   0.0000       0.818081        22.2611 
  88   0.0000       0.823342        22.4043 
  89   0.0000       0.837050        22.7773 
  90   0.0000       0.887464        24.1491 
  91   0.0000       0.915315        24.9070 
  92   0.0000       0.932749        25.3814 
  93   0.0000       0.949873        25.8474 
  94   0.0000       0.986766        26.8513 
  95   0.0000       1.050566        28.5874 
  96   0.0000       1.096082        29.8259 
  97   0.0000       1.111637        30.2492 
  98   0.0000       1.133764        30.8513 
  99   0.0000       1.171716        31.8840 
 100   0.0000       1.180511        32.1233 
 101   0.0000       1.207525        32.8584 
 102   0.0000       1.224092        33.3092 
 103   0.0000       1.256261        34.1846 
 104   0.0000       1.299834        35.3703 
 105   0.0000       1.336011        36.3547 
 106   0.0000       1.353878        36.8409 
 107   0.0000       1.370172        37.2843 
 108   0.0000       1.398473        38.0544 
 109   0.0000       1.440458        39.1969 
 110   0.0000       1.454068        39.5672 
 111   0.0000       1.484436        40.3936 
 112   0.0000       1.529219        41.6122 
 113   0.0000       1.562186        42.5092 
 114   0.0000       1.606532        43.7159 
 115   0.0000       1.614013        43.9195 
 116   0.0000       1.640823        44.6491 
 117   0.0000       1.664959        45.3058 
 118   0.0000       1.692621        46.0586 
 119   0.0000       1.725547        46.9545 
 120   0.0000       1.744646        47.4742 
 121   0.0000       1.758978        47.8642 
 122   0.0000       1.789915        48.7061 
 123   0.0000       1.815157        49.3929 
 124   0.0000       1.821122        49.5553 
 125   0.0000       1.841878        50.1200 
 126   0.0000       1.845706        50.2242 
 127   0.0000       1.855761        50.4978 
 128   0.0000       1.857062        50.5332 
 129   0.0000       1.879408        51.1413 
 130   0.0000       1.888784        51.3964 
 131   0.0000       1.899814        51.6966 
 132   0.0000       1.936268        52.6885 
 133   0.0000       1.938424        52.7472 
 134   0.0000       1.947704        52.9997 
 135   0.0000       1.962420        53.4002 
 136   0.0000       1.981081        53.9080 
 137   0.0000       1.993098        54.2349 
 138   0.0000       2.011812        54.7442 
 139   0.0000       2.031089        55.2687 
 140   0.0000       2.049912        55.7809 
 141   0.0000       2.074614        56.4531 
 142   0.0000       2.093971        56.9799 
 143   0.0000       2.142967        58.3131 
 144   0.0000       2.174142        59.1614 
 145   0.0000       2.191101        59.6229 
 146   0.0000       2.233186        60.7681 
 147   0.0000       2.253145        61.3112 
 148   0.0000       2.283173        62.1283 
 149   0.0000       2.296853        62.5006 
 150   0.0000       2.323032        63.2129 
 151   0.0000       2.332440        63.4689 
 152   0.0000       2.376281        64.6619 
 153   0.0000       2.407534        65.5123 
 154   0.0000       2.432479        66.1911 
 155   0.0000       2.459436        66.9247 
 156   0.0000       2.479426        67.4686 
 157   0.0000       2.514655        68.4272 
 158   0.0000       2.570810        69.9553 
 159   0.0000       2.590168        70.4821 
 160   0.0000       2.602912        70.8288 
 161   0.0000       2.632052        71.6218 
 162   0.0000       2.656013        72.2738 
 163   0.0000       2.677842        72.8678 
 164   0.0000       2.730713        74.3065 
 165   0.0000       2.796211        76.0888 
 166   0.0000       2.818303        76.6899 
 167   0.0000       2.833685        77.1085 
 168   0.0000       2.871849        78.1470 
 169   0.0000       2.897045        78.8326 
 170   0.0000       2.919041        79.4311 
 171   0.0000       2.962031        80.6010 
 172   0.0000       2.982263        81.1515 
 173   0.0000       3.005635        81.7875 
 174   0.0000       3.037498        82.6545 
 175   0.0000       3.066553        83.4451 
 176   0.0000       3.078540        83.7713 
 177   0.0000       3.102722        84.4294 
 178   0.0000       3.149929        85.7139 
 179   0.0000       3.165786        86.1454 
 180   0.0000       3.225954        87.7827 
 181   0.0000       3.250266        88.4442 
 182   0.0000       3.266334        88.8815 
 183   0.0000       3.428546        93.2955 
 184   0.0000       3.448551        93.8398 
 185   0.0000       3.471201        94.4562 
 186   0.0000       3.550768        96.6213 
 187   0.0000       3.631907        98.8292 
 188   0.0000       3.760883       102.3388 
 189   0.0000       3.861491       105.0765 

                    ********************************
                    * MULLIKEN POPULATION ANALYSIS *
                    ********************************

-----------------------
MULLIKEN ATOMIC CHARGES
-----------------------
   0 C :   -0.090441
   1 C :    0.138309
   2 H :    0.032960
   3 O :   -0.406642
   4 C :    0.118350
   5 C :    0.088606
   6 O :   -0.193961
   7 C :   -0.038226
   8 C :   -0.019066
   9 C :    0.166720
  10 O :   -0.311590
  11 H :    0.182545
  12 H :    0.053968
  13 H :    0.048477
  14 H :    0.030915
  15 H :    0.037720
  16 H :    0.047983
  17 H :    0.040902
  18 H :    0.036326
  19 H :    0.036144
Sum of atomic charges:   -0.0000000

--------------------------------
MULLIKEN REDUCED ORBITAL CHARGES
--------------------------------
  0 C s       :     3.019303  s :     3.019303
      pz      :     1.009998  p :     3.043860
      px      :     1.011700
      py      :     1.022162
      dz2     :     0.007966  d :     0.027278
      dxz     :     0.005242
      dyz     :     0.003557
      dx2y2   :     0.007335
      dxy     :     0.003178
  1 C s       :     3.027000  s :     3.027000
      pz      :     1.009351  p :     2.772844
      px      :     0.759786
      py      :     1.003707
      dz2     :     0.010637  d :     0.061847
      dxz     :     0.016158
      dyz     :     0.005438
      dx2y2   :     0.017040
      dxy     :     0.012574
  2 H s       :     0.946398  s :     0.946398
      pz      :     0.011165  p :     0.020642
      px      :     0.004995
      py      :     0.004481
  3 O s       :     3.766498  s :     3.766498
      pz      :     1.619935  p :     4.624503
      px      :     1.227166
      py      :     1.777402
      dz2     :     0.002562  d :     0.015641
      dxz     :     0.005368
      dyz     :     0.002116
      dx2y2   :     0.002287
      dxy     :     0.003309
  4 C s       :     3.008759  s :     3.008759
      pz      :     0.938040  p :     2.806536
      px      :     0.877074
      py      :     0.991422
      dz2     :     0.015785  d :     0.066355
      dxz     :     0.015503
      dyz     :     0.007356
      dx2y2   :     0.013283
      dxy     :     0.014428
  5 C s       :     3.115912  s :     3.115912
      pz      :     0.768156  p :     2.695598
      px      :     0.940154
      py      :     0.987287
      dz2     :     0.005113  d :     0.099884
      dxz     :     0.011463
      dyz     :     0.014513
      dx2y2   :     0.045324
      dxy     :     0.023471
  6 O s       :     3.728697  s :     3.728697
      pz      :     1.319282  p :     4.446538
      px      :     1.628442
      py      :     1.498814
      dz2     :     0.001994  d :     0.018726
      dxz     :     0.002142
      dyz     :     0.004143
      dx2y2   :     0.004324
      dxy     :     0.006122
  7 C s       :     3.216362  s :     3.216362
      pz      :     0.998976  p :     2.788493
      px      :     0.934453
      py      :     0.855064
      dz2     :     0.002887  d :     0.033371
      dxz     :     0.002087
      dyz     :     0.005913
      dx2y2   :     0.012470
      dxy     :     0.010014
  8 C s       :     3.210779  s :     3.210779
      pz      :     0.885155  p :     2.772413
      px      :     0.929355
      py      :     0.957904
      dz2     :     0.003260  d :     0.035874
      dxz     :     0.002798
      dyz     :     0.007298
      dx2y2   :     0.010246
      dxy     :     0.012272
  9 C s       :     2.991271  s :     2.991271
      pz      :     0.980751  p :     2.769089
      px      :     0.958561
      py      :     0.829777
      dz2     :     0.017186  d :     0.072920
      dxz     :     0.005990
      dyz     :     0.016125
      dx2y2   :     0.014031
      dxy     :     0.019588
 10 O s       :     3.717335  s :     3.717335
      pz      :     1.727943  p :     4.581074
      px      :     1.573944
      py      :     1.279188
      dz2     :     0.002082  d :     0.013181
      dxz     :     0.001974
      dyz     :     0.003330
      dx2y2   :     0.001872
      dxy     :     0.003923
 11 H s       :     0.748273  s :     0.748273
      pz      :     0.017789  p :     0.069182
      px      :     0.027255
      py      :     0.024138
 12 H s       :     0.925823  s :     0.925823
      pz      :     0.013934  p :     0.020210
      px      :     0.003861
      py      :     0.002415
 13 H s       :     0.928475  s :     0.928475
      pz      :     0.003827  p :     0.023048
      px      :     0.014599
      py      :     0.004622
 14 H s       :     0.945747  s :     0.945747
      pz      :     0.004369  p :     0.023338
      px      :     0.007044
      py      :     0.011925
 15 H s       :     0.941298  s :     0.941298
      pz      :     0.013164  p :     0.020982
      px      :     0.002843
      py      :     0.004974
 16 H s       :     0.928781  s :     0.928781
      pz      :     0.004811  p :     0.023236
      px      :     0.002981
      py      :     0.015444
 17 H s       :     0.935050  s :     0.935050
      pz      :     0.004856  p :     0.024048
      px      :     0.013435
      py      :     0.005757
 18 H s       :     0.940298  s :     0.940298
      pz      :     0.004801  p :     0.023375
      px      :     0.004772
      py      :     0.013803
 19 H s       :     0.939855  s :     0.939855
      pz      :     0.011803  p :     0.024001
      px      :     0.007190
      py      :     0.005008


                     *******************************
                     * LOEWDIN POPULATION ANALYSIS *
                     *******************************

----------------------
LOEWDIN ATOMIC CHARGES
----------------------
   0 C :   -0.082531
   1 C :    0.069705
   2 H :    0.022300
   3 O :   -0.172559
   4 C :    0.027805
   5 C :    0.066910
   6 O :   -0.143625
   7 C :   -0.057514
   8 C :    0.039134
   9 C :    0.051215
  10 O :   -0.130691
  11 H :    0.083907
  12 H :    0.028671
  13 H :    0.036966
  14 H :    0.036013
  15 H :    0.024399
  16 H :    0.015844
  17 H :    0.034655
  18 H :    0.025672
  19 H :    0.023725

-------------------------------
LOEWDIN REDUCED ORBITAL CHARGES
-------------------------------
  0 C s       :     2.837024  s :     2.837024
      pz      :     1.053361  p :     3.174849
      px      :     1.059322
      py      :     1.062166
      dz2     :     0.019394  d :     0.070659
      dxz     :     0.014381
      dyz     :     0.009801
      dx2y2   :     0.019174
      dxy     :     0.007909
  1 C s       :     2.841663  s :     2.841663
      pz      :     1.056747  p :     2.947962
      px      :     0.843940
      py      :     1.047275
      dz2     :     0.023476  d :     0.140671
      dxz     :     0.038396
      dyz     :     0.013635
      dx2y2   :     0.037991
      dxy     :     0.027172
  2 H s       :     0.914330  s :     0.914330
      pz      :     0.033362  p :     0.063370
      px      :     0.017065
      py      :     0.012943
  3 O s       :     3.457755  s :     3.457755
      pz      :     1.647789  p :     4.685901
      px      :     1.267706
      py      :     1.770406
      dz2     :     0.004249  d :     0.028903
      dxz     :     0.010317
      dyz     :     0.002680
      dx2y2   :     0.005292
      dxy     :     0.006365
  4 C s       :     2.859352  s :     2.859352
      pz      :     0.988114  p :     2.958606
      px      :     0.921951
      py      :     1.048542
      dz2     :     0.038655  d :     0.154237
      dxz     :     0.034469
      dyz     :     0.015424
      dx2y2   :     0.030695
      dxy     :     0.034995
  5 C s       :     2.877437  s :     2.877437
      pz      :     0.757319  p :     2.827883
      px      :     1.035875
      py      :     1.034689
      dz2     :     0.012706  d :     0.227770
      dxz     :     0.020782
      dyz     :     0.025735
      dx2y2   :     0.110723
      dxy     :     0.057825
  6 O s       :     3.537259  s :     3.537259
      pz      :     1.317632  p :     4.574632
      px      :     1.673804
      py      :     1.583196
      dz2     :     0.004194  d :     0.031734
      dxz     :     0.002559
      dyz     :     0.004856
      dx2y2   :     0.007805
      dxy     :     0.012320
  7 C s       :     2.876747  s :     2.876747
      pz      :     0.977787  p :     3.090903
      px      :     1.043235
      py      :     1.069880
      dz2     :     0.007383  d :     0.089864
      dxz     :     0.005120
      dyz     :     0.010745
      dx2y2   :     0.037865
      dxy     :     0.028750
  8 C s       :     2.880374  s :     2.880374
      pz      :     0.873106  p :     2.990580
      px      :     1.044272
      py      :     1.073202
      dz2     :     0.007254  d :     0.089912
      dxz     :     0.005035
      dyz     :     0.014121
      dx2y2   :     0.027298
      dxy     :     0.036204
  9 C s       :     2.838327  s :     2.838327
      pz      :     1.016107  p :     2.946251
      px      :     1.035132
      py      :     0.895012
      dz2     :     0.041794  d :     0.164207
      dxz     :     0.011476
      dyz     :     0.034940
      dx2y2   :     0.027380
      dxy     :     0.048617
 10 O s       :     3.435388  s :     3.435388
      pz      :     1.735168  p :     4.670391
      px      :     1.609446
      py      :     1.325777
      dz2     :     0.003599  d :     0.024912
      dxz     :     0.002313
      dyz     :     0.006367
      dx2y2   :     0.003639
      dxy     :     0.008994
 11 H s       :     0.734974  s :     0.734974
      pz      :     0.049113  p :     0.181119
      px      :     0.074933
      py      :     0.057074
 12 H s       :     0.903709  s :     0.903709
      pz      :     0.043447  p :     0.067620
      px      :     0.012696
      py      :     0.011478
 13 H s       :     0.891506  s :     0.891506
      pz      :     0.012506  p :     0.071528
      px      :     0.043701
      py      :     0.015321
 14 H s       :     0.892070  s :     0.892070
      pz      :     0.014776  p :     0.071916
      px      :     0.023343
      py      :     0.033797
 15 H s       :     0.905286  s :     0.905286
      pz      :     0.040939  p :     0.070315
      px      :     0.012831
      py      :     0.016544
 16 H s       :     0.913534  s :     0.913534
      pz      :     0.014276  p :     0.070622
      px      :     0.010325
      py      :     0.046021
 17 H s       :     0.897780  s :     0.897780
      pz      :     0.013991  p :     0.067565
      px      :     0.037689
      py      :     0.015885
 18 H s       :     0.907052  s :     0.907052
      pz      :     0.014419  p :     0.067277
      px      :     0.012918
      py      :     0.039939
 19 H s       :     0.908592  s :     0.908592
      pz      :     0.034074  p :     0.067682
      px      :     0.019692
      py      :     0.013917


                      *****************************
                      * MAYER POPULATION ANALYSIS *
                      *****************************

  NA   - Mulliken gross atomic population
  ZA   - Total nuclear charge
  QA   - Mulliken gross atomic charge
  VA   - Mayer's total valence
  BVA  - Mayer's bonded valence
  FA   - Mayer's free valence

  ATOM       NA         ZA         QA         VA         BVA        FA
  0 C      6.0904     6.0000    -0.0904     4.0010     4.0010    -0.0000
  1 C      5.8617     6.0000     0.1383     4.0166     4.0166     0.0000
  2 H      0.9670     1.0000     0.0330     0.9823     0.9823     0.0000
  3 O      8.4066     8.0000    -0.4066     2.0470     2.0470    -0.0000
  4 C      5.8816     6.0000     0.1184     3.8197     3.8197    -0.0000
  5 C      5.9114     6.0000     0.0886     4.1203     4.1203    -0.0000
  6 O      8.1940     8.0000    -0.1940     2.2971     2.2971     0.0000
  7 C      6.0382     6.0000    -0.0382     3.7659     3.7659    -0.0000
  8 C      6.0191     6.0000    -0.0191     3.8425     3.8425    -0.0000
  9 C      5.8333     6.0000     0.1667     3.9851     3.9851     0.0000
 10 O      8.3116     8.0000    -0.3116     2.0852     2.0852    -0.0000
 11 H      0.8175     1.0000     0.1825     1.0069     1.0069    -0.0000
 12 H      0.9460     1.0000     0.0540     0.9923     0.9923     0.0000
 13 H      0.9515     1.0000     0.0485     0.9963     0.9963    -0.0000
 14 H      0.9691     1.0000     0.0309     1.0001     1.0001    -0.0000
 15 H      0.9623     1.0000     0.0377     1.0064     1.0064     0.0000
 16 H      0.9520     1.0000     0.0480     1.0152     1.0152    -0.0000
 17 H      0.9591     1.0000     0.0409     0.9926     0.9926     0.0000
 18 H      0.9637     1.0000     0.0363     0.9929     0.9929     0.0000
 19 H      0.9639     1.0000     0.0361     0.9912     0.9912    -0.0000

  Mayer bond orders larger than 0.100000
B(  0-C ,  1-C ) :   1.0893 B(  0-C , 17-H ) :   0.9660 B(  0-C , 18-H ) :   0.9691 
B(  0-C , 19-H ) :   0.9699 B(  1-C ,  2-H ) :   0.9635 B(  1-C ,  3-O ) :   0.9474 
B(  1-C , 16-H ) :   0.9499 B(  3-O ,  4-C ) :   1.0243 B(  4-C ,  5-C ) :   0.9064 
B(  4-C ,  9-C ) :   0.9894 B(  4-C , 15-H ) :   0.8921 B(  5-C ,  6-O ) :   2.1449 
B(  5-C ,  7-C ) :   0.9996 B(  7-C ,  8-C ) :   1.7568 B(  7-C , 14-H ) :   1.0024 
B(  8-C ,  9-C ) :   1.0119 B(  8-C , 13-H ) :   0.9855 B(  9-C , 10-O ) :   1.0689 
B(  9-C , 12-H ) :   0.9094 B( 10-O , 11-H ) :   0.9760 

-------
TIMINGS
-------

Total SCF time: 0 days 0 hours 1 min 55 sec 

Total time                  ....     115.132 sec
Sum of individual times     ....     114.844 sec  ( 99.8%)

Fock matrix formation       ....     112.982 sec  ( 98.1%)
  XC integration            ....       6.539 sec  (  5.8% of F)
    Basis function eval.    ....       1.919 sec  ( 29.4% of XC)
    Density eval.           ....       1.142 sec  ( 17.5% of XC)
    XC-Functional eval.     ....       1.739 sec  ( 26.6% of XC)
    XC-Potential eval.      ....       1.554 sec  ( 23.8% of XC)
Diagonalization             ....       0.034 sec  (  0.0%)
Density matrix formation    ....       0.008 sec  (  0.0%)
Population analysis         ....       0.005 sec  (  0.0%)
Initial guess               ....       0.468 sec  (  0.4%)
Orbital Transformation      ....       0.000 sec  (  0.0%)
Orbital Orthonormalization  ....       0.000 sec  (  0.0%)
DIIS solution               ....       0.011 sec  (  0.0%)
SOSCF solution              ....       0.023 sec  (  0.0%)
Grid generation             ....       1.312 sec  (  1.1%)


-------------------------------------------------------------------------------
                          DFT DISPERSION CORRECTION                            
                                                                               
                              DFTD3 V3.1  Rev 1                                
                              USING zero damping                               
-------------------------------------------------------------------------------
The omegaB97X-D3 functional is recognized. Fit by Chai et al.
Active option DFTDOPT                   ...         3   

molecular C6(AA) [au] = 3535.035515 


            DFT-D V3
 parameters
 s6 scaling factor         :     1.0000 
 rs6 scaling factor        :     1.2810 
 s8 scaling factor         :     1.0000 
 rs8 scaling factor        :     1.0940 
 Damping factor alpha6     :    14.0000 
 Damping factor alpha8     :    16.0000 
 ad hoc parameters k1-k3   :    16.0000     1.3333    -4.0000 

 Edisp/kcal,au: -4.405980822998  -0.007021376625 
 E6   /kcal   :  -1.775638042 
 E8   /kcal   :  -2.630342781 
 % E8         :  59.699369718 

-------------------------   ----------------
Dispersion correction           -0.007021377
-------------------------   ----------------


-------------------------   --------------------
FINAL SINGLE POINT ENERGY      -497.891681769558
-------------------------   --------------------

------------------------------------------------------------------------------
                         ORCA SCF GRADIENT CALCULATION
------------------------------------------------------------------------------

Gradient of the Kohn-Sham DFT energy:
Kohn-Sham wavefunction type      ... RKS
Hartree-Fock exchange scaling    ...    0.196
Number of operators              ...    1
Number of atoms                  ...   20
Basis set dimensions             ...  190
Integral neglect threshold       ... 2.5e-11
Integral primitive cutoff        ... 2.5e-12

Nuclear repulsion gradient       ... done
One Electron Gradient            ... done
Pre-screening matrix             ... done
Starting the two electron gradient:
Two electron gradient done
Exchange-correlation gradient    ... done
Dispersion correction            ... done

------------------
CARTESIAN GRADIENT
------------------

   1   C   :   -0.008261906   -0.005788859   -0.010990569
   2   C   :   -0.001518643    0.007624000    0.002820187
   3   H   :    0.003969691   -0.001312064   -0.003381005
   4   O   :   -0.004400413   -0.003931612    0.006962946
   5   C   :    0.002957602    0.003845135   -0.012066211
   6   C   :    0.005645788    0.004183313   -0.001541631
   7   O   :    0.000935059   -0.001853544   -0.000311522
   8   C   :   -0.002714645   -0.003344038    0.000150605
   9   C   :    0.009890775    0.005319165    0.002952263
  10   C   :    0.008705159    0.003615136    0.004981743
  11   O   :   -0.001738665   -0.000472275    0.001752347
  12   H   :   -0.000840784   -0.001994005   -0.001384632
  13   H   :    0.001608928   -0.001053758   -0.003748708
  14   H   :   -0.012260147    0.001919347   -0.000804836
  15   H   :   -0.006693177   -0.009249784    0.001301889
  16   H   :   -0.001783204    0.001750654    0.004097858
  17   H   :   -0.000133501   -0.004733145   -0.000432261
  18   H   :    0.008790784   -0.002465601    0.002313238
  19   H   :    0.000735616    0.008614631   -0.001060649
  20   H   :   -0.002894315   -0.000672695    0.008388948

Difference to translation invariance:
           :   -0.0000000000   -0.0000000000   -0.0000000000

Norm of the cartesian gradient     ...    0.0387598192
RMS gradient                       ...    0.0050038711
MAX gradient                       ...    0.0122601472

-------
TIMINGS
-------

Total SCF gradient time            ...       38.556 sec

One electron gradient       ....       0.146 sec  (  0.4%)
Prescreening matrices       ....       0.089 sec  (  0.2%)
Two electron gradient       ....      33.303 sec  ( 86.4%)
XC gradient                 ....       4.870 sec  ( 12.6%)
------------------------------------------------------------------------------
                         ORCA GEOMETRY RELAXATION STEP
------------------------------------------------------------------------------

Reading the OPT-File                    .... done
Getting information on internals        .... done
Copying old internal coords+grads       .... done
Making the new internal coordinates     .... (new redundants).... done
Validating the new internal coordinates .... (new redundants).... done
Calculating the B-matrix                .... done
Calculating the G,G- and P matrices     .... done
Transforming gradient to internals      .... done
Projecting the internal gradient        .... done
Number of atoms                         ....  20
Number of internal coordinates          .... 102
Current Energy                          ....  -497.891681770 Eh
Current gradient norm                   ....     0.038759819 Eh/bohr
Maximum allowed component of the step   ....  0.300
Current trust radius                    ....  0.300
Evaluating the initial hessian          ....  (Almloef) done
Projecting the Hessian                  .... done
Forming the augmented Hessian           .... done
Diagonalizing the augmented Hessian     .... done
Last element of RFO vector              ....  0.987129336
Lowest eigenvalues of augmented Hessian:
 -0.002823047  0.011391421  0.011471922  0.011937666  0.019645345
Length of the computed step             ....  0.162009130
The final length of the internal step   ....  0.162009130
Converting the step to cartesian space:
 Initial RMS(Int)=    0.0160412942
Transforming coordinates:
 Iter   0:  RMS(Cart)=    0.0468419856 RMS(Int)=    0.0160783380
 Iter   1:  RMS(Cart)=    0.0007832282 RMS(Int)=    0.0003852453
 Iter   2:  RMS(Cart)=    0.0000216012 RMS(Int)=    0.0000118227
 Iter   3:  RMS(Cart)=    0.0000008007 RMS(Int)=    0.0000004262
 Iter   4:  RMS(Cart)=    0.0000000252 RMS(Int)=    0.0000000164
done
Storing new coordinates                 .... done

                                .--------------------.
          ----------------------|Geometry convergence|-------------------------
          Item                value                   Tolerance       Converged
          ---------------------------------------------------------------------
          RMS gradient        0.0030394100            0.0001000000      NO
          MAX gradient        0.0122822196            0.0003000000      NO
          RMS step            0.0160412942            0.0020000000      NO
          MAX step            0.0414192939            0.0040000000      NO
          ........................................................
          Max(Bonds)      0.0170      Max(Angles)    0.78
          Max(Dihed)        2.37      Max(Improp)    0.00
          ---------------------------------------------------------------------

The optimization has not yet converged - more geometry cycles are needed


    ---------------------------------------------------------------------------
                         Redundant Internal Coordinates
                            (Angstroem and degrees)

        Definition                    Value    dE/dq     Step     New-Value
    ----------------------------------------------------------------------------
     1. B(C   1,C   0)                1.5267  0.001854 -0.0026    1.5241   
     2. B(H   2,C   1)                1.0929 -0.004798  0.0071    1.1000   
     3. B(O   3,C   1)                1.4215  0.000388 -0.0004    1.4211   
     4. B(C   4,O   3)                1.4073  0.006292 -0.0063    1.4010   
     5. B(C   5,C   4)                1.5400 -0.001892  0.0024    1.5424   
     6. B(O   6,C   5)                1.2057 -0.002030  0.0010    1.2067   
     7. B(C   7,C   5)                1.4695 -0.007574  0.0086    1.4781   
     8. B(C   8,C   7)                1.3310 -0.007311  0.0053    1.3363   
     9. B(C   9,C   8)                1.4991 -0.004100  0.0056    1.5047   
    10. B(C   9,C   4)                1.5448  0.004433 -0.0073    1.5375   
    11. B(O  10,C   9)                1.4033  0.001476 -0.0015    1.4018   
    12. B(H  11,O  10)                0.9634  0.001633 -0.0017    0.9617   
    13. B(H  12,C   9)                1.1029 -0.003593  0.0055    1.1084   
    14. B(H  13,C   8)                1.0759 -0.012282  0.0170    1.0929   
    15. B(H  14,C   7)                1.0757 -0.011482  0.0159    1.0916   
    16. B(H  15,C   4)                1.1022 -0.003855  0.0059    1.1081   
    17. B(H  16,C   1)                1.0938 -0.004532  0.0067    1.1005   
    18. B(H  17,C   0)                1.0862 -0.009293  0.0134    1.0996   
    19. B(H  18,C   0)                1.0879 -0.008665  0.0125    1.1004   
    20. B(H  19,C   0)                1.0876 -0.008759  0.0127    1.1003   
    21. A(H  17,C   0,H  19)          108.21  0.001796   -0.37    107.84   
    22. A(C   1,C   0,H  17)          109.19 -0.001450    0.24    109.43   
    23. A(H  18,C   0,H  19)          108.90  0.001118   -0.16    108.74   
    24. A(C   1,C   0,H  19)          111.35 -0.001788    0.33    111.68   
    25. A(H  17,C   0,H  18)          108.88  0.001065   -0.20    108.68   
    26. A(C   1,C   0,H  18)          110.26 -0.000630    0.14    110.40   
    27. A(H   2,C   1,H  16)          108.82  0.001371   -0.41    108.41   
    28. A(C   0,C   1,H  16)          110.45 -0.001822    0.22    110.67   
    29. A(O   3,C   1,H  16)          110.33 -0.000059   -0.10    110.23   
    30. A(C   0,C   1,H   2)          109.85  0.000119    0.04    109.89   
    31. A(C   0,C   1,O   3)          113.39  0.002819   -0.37    113.02   
    32. A(H   2,C   1,O   3)          103.73 -0.002425    0.63    104.36   
    33. A(C   1,O   3,C   4)          116.31 -0.001852    0.26    116.58   
    34. A(C   9,C   4,H  15)          108.55  0.001897   -0.76    107.80   
    35. A(C   5,C   4,H  15)          107.30 -0.000114    0.14    107.44   
    36. A(O   3,C   4,H  15)          111.47 -0.000881    0.27    111.74   
    37. A(C   5,C   4,C   9)          104.13 -0.001036   -0.04    104.09   
    38. A(O   3,C   4,C   5)          115.60  0.000926   -0.11    115.49   
    39. A(O   3,C   4,C   9)          109.36 -0.000664    0.41    109.77   
    40. A(C   4,C   5,C   7)          106.23 -0.001962    0.19    106.42   
    41. A(C   4,C   5,O   6)          126.34  0.000594   -0.05    126.29   
    42. A(O   6,C   5,C   7)          127.43  0.001371   -0.14    127.29   
    43. A(C   8,C   7,H  14)          127.05 -0.002289    0.30    127.35   
    44. A(C   5,C   7,H  14)          121.99 -0.003128    0.47    122.46   
    45. A(C   5,C   7,C   8)          110.96  0.005416   -0.78    110.18   
    46. A(C   7,C   8,C   9)          112.59 -0.000889    0.14    112.73   
    47. A(C   9,C   8,H  13)          120.11 -0.001419    0.23    120.34   
    48. A(C   7,C   8,H  13)          127.30  0.002307   -0.37    126.93   
    49. A(C   8,C   9,O  10)          110.90  0.002142   -0.57    110.32   
    50. A(C   4,C   9,O  10)          114.86 -0.000893    0.30    115.16   
    51. A(C   4,C   9,C   8)          103.76 -0.001487    0.01    103.77   
    52. A(O  10,C   9,H  12)          110.44 -0.001138    0.37    110.81   
    53. A(C   8,C   9,H  12)          109.06 -0.000031    0.16    109.22   
    54. A(C   4,C   9,H  12)          107.50  0.001428   -0.28    107.22   
    55. A(C   9,O  10,H  11)          108.64  0.003343   -0.53    108.11   
    56. D(H   2,C   1,C   0,H  17)     55.96  0.000452    0.18     56.14   
    57. D(H  16,C   1,C   0,H  18)    176.34 -0.000195    0.54    176.88   
    58. D(O   3,C   1,C   0,H  18)     51.93 -0.000805    0.77     52.70   
    59. D(O   3,C   1,C   0,H  19)    -69.07 -0.000601    0.66    -68.41   
    60. D(O   3,C   1,C   0,H  17)    171.50 -0.000784    0.77    172.27   
    61. D(H   2,C   1,C   0,H  19)    175.39  0.000634    0.08    175.47   
    62. D(H  16,C   1,C   0,H  19)     55.35  0.000009    0.43     55.77   
    63. D(H  16,C   1,C   0,H  17)    -64.08 -0.000173    0.53    -63.55   
    64. D(H   2,C   1,C   0,H  18)    -63.62  0.000430    0.19    -63.43   
    65. D(C   4,O   3,C   1,H  16)    -50.77  0.000014    0.45    -50.32   
    66. D(C   4,O   3,C   1,C   0)     73.72 -0.000334    0.38     74.10   
    67. D(C   4,O   3,C   1,H   2)   -167.16 -0.000253    0.63   -166.53   
    68. D(H  15,C   4,O   3,C   1)    -52.47 -0.000415    1.87    -50.59   
    69. D(C   9,C   4,O   3,C   1)   -172.51 -0.001787    2.37   -170.13   
    70. D(C   5,C   4,O   3,C   1)     70.41 -0.000576    2.20     72.60   
    71. D(C   7,C   5,C   4,C   9)     13.99 -0.000368    1.28     15.28   
    72. D(C   7,C   5,C   4,O   3)    133.97 -0.001394    1.71    135.68   
    73. D(O   6,C   5,C   4,H  15)     78.64 -0.001521    1.69     80.33   
    74. D(C   7,C   5,C   4,H  15)   -100.97 -0.001985    2.09    -98.88   
    75. D(O   6,C   5,C   4,C   9)   -166.39  0.000097    0.88   -165.51   
    76. D(O   6,C   5,C   4,O   3)    -46.41 -0.000929    1.30    -45.11   
    77. D(H  14,C   7,C   5,O   6)     -7.00 -0.000736    0.26     -6.74   
    78. D(H  14,C   7,C   5,C   4)    172.61 -0.000270   -0.15    172.46   
    79. D(C   8,C   7,C   5,O   6)    172.51 -0.000850    0.08    172.59   
    80. D(C   8,C   7,C   5,C   4)     -7.88 -0.000384   -0.33     -8.22   
    81. D(H  13,C   8,C   7,H  14)     -2.71 -0.000812    0.65     -2.06   
    82. D(H  13,C   8,C   7,C   5)    177.82 -0.000689    0.84    178.66   
    83. D(C   9,C   8,C   7,H  14)    177.38  0.000109   -0.91    176.46   
    84. D(C   9,C   8,C   7,C   5)     -2.10  0.000232   -0.73     -2.82   
    85. D(C   8,C   9,C   4,C   5)    -14.70  0.000319   -1.58    -16.28   
    86. D(C   8,C   9,C   4,O   3)   -138.81  0.000193   -1.65   -140.46   
    87. D(H  12,C   9,C   8,H  13)     76.76 -0.000475    0.33     77.09   
    88. D(O  10,C   9,C   8,H  13)    -45.07 -0.000412    0.13    -44.94   
    89. D(O  10,C   9,C   8,C   7)    134.85 -0.001256    1.57    136.42   
    90. D(C   4,C   9,C   8,H  13)   -168.90  0.000411    0.08   -168.82   
    91. D(C   4,C   9,C   8,C   7)     11.02 -0.000433    1.52     12.54   
    92. D(H  12,C   9,C   4,H  15)   -145.17  0.000373   -1.70   -146.87   
    93. D(H  12,C   9,C   4,C   5)    100.75  0.000193   -1.52     99.24   
    94. D(H  12,C   9,C   4,O   3)    -23.36  0.000067   -1.58    -24.94   
    95. D(O  10,C   9,C   4,H  15)    -21.84 -0.000623   -1.22    -23.06   
    96. D(O  10,C   9,C   4,C   5)   -135.91 -0.000804   -1.04   -136.96   
    97. D(H  12,C   9,C   8,C   7)   -103.33 -0.001319    1.77   -101.56   
    98. D(O  10,C   9,C   4,O   3)     99.98 -0.000929   -1.11     98.87   
    99. D(C   8,C   9,C   4,H  15)     99.37  0.000499   -1.76     97.61   
   100. D(H  11,O  10,C   9,H  12)     56.36  0.000361   -0.99     55.37   
   101. D(H  11,O  10,C   9,C   8)    177.38  0.000984   -0.93    176.45   
   102. D(H  11,O  10,C   9,C   4)    -65.39  0.000008   -1.13    -66.52   
    ----------------------------------------------------------------------------

         *************************************************************
         *                GEOMETRY OPTIMIZATION CYCLE   2            *
         *************************************************************
---------------------------------
CARTESIAN COORDINATES (ANGSTROEM)
---------------------------------
  C     -3.019612   -0.726538   -0.678778
  C     -2.368574    0.063530    0.450331
  H     -2.963555   -0.038383    1.369852
  O     -1.084033   -0.429931    0.805148
  C     -0.038636   -0.154414   -0.085930
  C      0.446558    1.309491   -0.107737
  O     -0.251923    2.293156   -0.132204
  C      1.923830    1.259847   -0.112240
  C      2.343522    0.006213    0.082708
  C      1.210587   -0.956711    0.313665
  O      1.418662   -2.136923   -0.413563
  H      0.708158   -2.748829   -0.200072
  H      1.129619   -1.171503    1.398031
  H      3.378765   -0.343048    0.108573
  H      2.539632    2.150992   -0.247459
  H     -0.301624   -0.432593   -1.125784
  H     -2.307949    1.131608    0.192265
  H     -4.057116   -0.387466   -0.811594
  H     -3.027711   -1.800711   -0.440151
  H     -2.492499   -0.580487   -1.633463

----------------------------
CARTESIAN COORDINATES (A.U.)
----------------------------
  NO LB      ZA    FRAG     MASS         X           Y           Z
   0 C     6.0000    0    12.011   -5.706239   -1.372958   -1.282704
   1 C     6.0000    0    12.011   -4.475957    0.120054    0.851003
   2 H     1.0000    0     1.008   -5.600307   -0.072534    2.588645
   3 O     8.0000    0    15.999   -2.048525   -0.812452    1.521509
   4 C     6.0000    0    12.011   -0.073012   -0.291800   -0.162384
   5 C     6.0000    0    12.011    0.843873    2.474579   -0.203593
   6 O     8.0000    0    15.999   -0.476065    4.333437   -0.249828
   7 C     6.0000    0    12.011    3.635512    2.380766   -0.212103
   8 C     6.0000    0    12.011    4.428614    0.011740    0.156295
   9 C     6.0000    0    12.011    2.287678   -1.807921    0.592742
  10 O     8.0000    0    15.999    2.680882   -4.038199   -0.781520
  11 H     1.0000    0     1.008    1.338224   -5.194534   -0.378081
  12 H     1.0000    0     1.008    2.134671   -2.213820    2.641895
  13 H     1.0000    0     1.008    6.384940   -0.648266    0.205173
  14 H     1.0000    0     1.008    4.799208    4.064785   -0.467630
  15 H     1.0000    0     1.008   -0.569987   -0.817482   -2.127423
  16 H     1.0000    0     1.008   -4.361391    2.138430    0.363329
  17 H     1.0000    0     1.008   -7.666838   -0.732205   -1.533691
  18 H     1.0000    0     1.008   -5.721544   -3.402850   -0.831765
  19 H     1.0000    0     1.008   -4.710140   -1.096961   -3.086797

--------------------------------
INTERNAL COORDINATES (ANGSTROEM)
--------------------------------
 C      0   0   0     0.000000000000     0.00000000     0.00000000
 C      1   0   0     1.524120567573     0.00000000     0.00000000
 H      2   1   0     1.099957577453   109.89022425     0.00000000
 O      2   1   3     1.421072060676   113.02198879   116.12612123
 C      4   2   1     1.400993835134   116.57680643    74.10120901
 C      5   4   2     1.542369942100   115.49156539    72.60750173
 O      6   5   4     1.206678100865   126.29254031   314.89002679
 C      6   5   4     1.478112747463   106.41330089   135.67994523
 C      8   6   5     1.336317510881   110.17875751   351.78670486
 C      9   8   6     1.504693629430   112.72273119   357.18396632
 O     10   9   8     1.401804409837   110.32820330   136.42048599
 H     11  10   9     0.961677722758   108.11194773   176.45551680
 H     10   9   8     1.108395196565   109.21891413   258.44776882
 H      9   8   6     1.092876882810   126.92441914   178.65507423
 H      8   6   5     1.091620228376   122.46305448   172.46314557
 H      5   4   2     1.108080271630   111.74057102   309.40913159
 H      2   1   3     1.100484136389   110.66592186   240.30730367
 H      1   2   3     1.099556957443   109.43167970    56.14477387
 H      1   2   3     1.100388515995   110.39663839   296.57321791
 H      1   2   3     1.100273701043   111.67558674   175.46722718

---------------------------
INTERNAL COORDINATES (A.U.)
---------------------------
 C      0   0   0     0.000000000000     0.00000000     0.00000000
 C      1   0   0     2.880170467790     0.00000000     0.00000000
 H      2   1   0     2.078618580318   109.89022425     0.00000000
 O      2   1   3     2.685437011244   113.02198879   116.12612123
 C      4   2   1     2.647494663716   116.57680643    74.10120901
 C      5   4   2     2.914656787760   115.49156539    72.60750173
 O      6   5   4     2.280291142435   126.29254031   314.89002679
 C      6   5   4     2.793228287763   106.41330089   135.67994523
 C      8   6   5     2.525274123528   110.17875751   351.78670486
[...]
 154   0.0000       2.435376        66.2699 
 155   0.0000       2.451696        66.7140 
 156   0.0000       2.468085        67.1600 
 157   0.0000       2.505281        68.1722 
 158   0.0000       2.559590        69.6500 
 159   0.0000       2.588785        70.4444 
 160   0.0000       2.593351        70.5687 
 161   0.0000       2.621421        71.3325 
 162   0.0000       2.638283        71.7913 
 163   0.0000       2.653153        72.1960 
 164   0.0000       2.721260        74.0492 
 165   0.0000       2.782663        75.7201 
 166   0.0000       2.808069        76.4114 
 167   0.0000       2.827230        76.9328 
 168   0.0000       2.855445        77.7006 
 169   0.0000       2.870188        78.1018 
 170   0.0000       2.902905        78.9921 
 171   0.0000       2.941546        80.0435 
 172   0.0000       2.972742        80.8924 
 173   0.0000       3.002663        81.7066 
 174   0.0000       3.028458        82.4085 
 175   0.0000       3.053185        83.0814 
 176   0.0000       3.078023        83.7573 
 177   0.0000       3.102200        84.4152 
 178   0.0000       3.146764        85.6278 
 179   0.0000       3.166026        86.1520 
 180   0.0000       3.231627        87.9371 
 181   0.0000       3.262410        88.7747 
 182   0.0000       3.269810        88.9761 
 183   0.0000       3.409399        92.7745 
 184   0.0000       3.440526        93.6215 
 185   0.0000       3.467157        94.3461 
 186   0.0000       3.543555        96.4250 
 187   0.0000       3.649063        99.2961 
 188   0.0000       3.757257       102.2402 
 189   0.0000       3.866821       105.2216 

                    ********************************
                    * MULLIKEN POPULATION ANALYSIS *
                    ********************************

-----------------------
MULLIKEN ATOMIC CHARGES
-----------------------
   0 C :   -0.087176
   1 C :    0.135701
   2 H :    0.039670
   3 O :   -0.393869
   4 C :    0.103387
   5 C :    0.087497
   6 O :   -0.193863
   7 C :   -0.046412
   8 C :   -0.041440
   9 C :    0.168010
  10 O :   -0.303125
  11 H :    0.181438
  12 H :    0.054929
  13 H :    0.055477
  14 H :    0.040052
  15 H :    0.043762
  16 H :    0.041474
  17 H :    0.040573
  18 H :    0.040739
  19 H :    0.033177
Sum of atomic charges:   -0.0000000

--------------------------------
MULLIKEN REDUCED ORBITAL CHARGES
--------------------------------
  0 C s       :     3.028388  s :     3.028388
      pz      :     1.008240  p :     3.031895
      px      :     1.005590
      py      :     1.018065
      dz2     :     0.005534  d :     0.026894
      dxz     :     0.005883
      dyz     :     0.005567
      dx2y2   :     0.006372
      dxy     :     0.003537
  1 C s       :     3.032577  s :     3.032577
      pz      :     1.008150  p :     2.769305
      px      :     0.770343
      py      :     0.990811
      dz2     :     0.008653  d :     0.062418
      dxz     :     0.016895
      dyz     :     0.007872
      dx2y2   :     0.016266
      dxy     :     0.012732
  2 H s       :     0.939660  s :     0.939660
      pz      :     0.010750  p :     0.020670
      px      :     0.005476
      py      :     0.004445
  3 O s       :     3.757030  s :     3.757030
      pz      :     1.634173  p :     4.620857
      px      :     1.205329
      py      :     1.781355
      dz2     :     0.002401  d :     0.015982
      dxz     :     0.005808
      dyz     :     0.002220
      dx2y2   :     0.002253
      dxy     :     0.003300
  4 C s       :     3.016132  s :     3.016132
      pz      :     0.955090  p :     2.811096
      px      :     0.865234
      py      :     0.990772
      dz2     :     0.016552  d :     0.069385
      dxz     :     0.015306
      dyz     :     0.006292
      dx2y2   :     0.013890
      dxy     :     0.017345
  5 C s       :     3.130307  s :     3.130307
      pz      :     0.770627  p :     2.682664
      px      :     0.934611
      py      :     0.977426
      dz2     :     0.006259  d :     0.099532
      dxz     :     0.011139
      dyz     :     0.014961
      dx2y2   :     0.042790
      dxy     :     0.024383
  6 O s       :     3.726726  s :     3.726726
      pz      :     1.320027  p :     4.448295
      px      :     1.646744
      py      :     1.481524
      dz2     :     0.002189  d :     0.018841
      dxz     :     0.001999
      dyz     :     0.004402
      dx2y2   :     0.004354
      dxy     :     0.005897
  7 C s       :     3.220995  s :     3.220995
      pz      :     0.998326  p :     2.793122
      px      :     0.934247
      py      :     0.860548
      dz2     :     0.002576  d :     0.032295
      dxz     :     0.001871
      dyz     :     0.006156
      dx2y2   :     0.011850
      dxy     :     0.009842
  8 C s       :     3.224371  s :     3.224371
      pz      :     0.888284  p :     2.781935
      px      :     0.939533
      py      :     0.954118
      dz2     :     0.002871  d :     0.035133
      dxz     :     0.002385
      dyz     :     0.007796
      dx2y2   :     0.010039
      dxy     :     0.012044
  9 C s       :     2.992628  s :     2.992628
      pz      :     0.971071  p :     2.765406
      px      :     0.960328
      py      :     0.834007
      dz2     :     0.017572  d :     0.073956
      dxz     :     0.005859
      dyz     :     0.016750
      dx2y2   :     0.014057
      dxy     :     0.019718
 10 O s       :     3.716338  s :     3.716338
      pz      :     1.690046  p :     4.573391
      px      :     1.583020
      py      :     1.300325
      dz2     :     0.001995  d :     0.013395
      dxz     :     0.002278
      dyz     :     0.003966
      dx2y2   :     0.001983
      dxy     :     0.003173
 11 H s       :     0.749061  s :     0.749061
      pz      :     0.018074  p :     0.069501
      px      :     0.027936
      py      :     0.023491
 12 H s       :     0.925069  s :     0.925069
      pz      :     0.013927  p :     0.020003
      px      :     0.003819
      py      :     0.002256
 13 H s       :     0.922184  s :     0.922184
      pz      :     0.003808  p :     0.022339
      px      :     0.013728
      py      :     0.004803
 14 H s       :     0.937123  s :     0.937123
      pz      :     0.004231  p :     0.022825
      px      :     0.007468
      py      :     0.011127
 15 H s       :     0.935729  s :     0.935729
      pz      :     0.013763  p :     0.020509
      px      :     0.002375
      py      :     0.004371
 16 H s       :     0.936321  s :     0.936321
      pz      :     0.005508  p :     0.022205
      px      :     0.002776
      py      :     0.013921
 17 H s       :     0.935754  s :     0.935754
      pz      :     0.005282  p :     0.023673
      px      :     0.012988
      py      :     0.005403
 18 H s       :     0.936491  s :     0.936491
      pz      :     0.005857  p :     0.022771
      px      :     0.004733
      py      :     0.012181
 19 H s       :     0.943451  s :     0.943451
      pz      :     0.011194  p :     0.023372
      px      :     0.007622
      py      :     0.004557


                     *******************************
                     * LOEWDIN POPULATION ANALYSIS *
                     *******************************

----------------------
LOEWDIN ATOMIC CHARGES
----------------------
   0 C :   -0.086154
   1 C :    0.069578
   2 H :    0.025482
   3 O :   -0.162815
   4 C :    0.016219
   5 C :    0.065670
   6 O :   -0.145006
   7 C :   -0.060967
   8 C :    0.031618
   9 C :    0.046497
  10 O :   -0.126576
  11 H :    0.083750
  12 H :    0.030108
  13 H :    0.040004
  14 H :    0.039477
  15 H :    0.027820
  16 H :    0.017771
  17 H :    0.034208
  18 H :    0.028332
  19 H :    0.024984

-------------------------------
LOEWDIN REDUCED ORBITAL CHARGES
-------------------------------
  0 C s       :     2.846326  s :     2.846326
      pz      :     1.054317  p :     3.170079
      px      :     1.057709
      py      :     1.058054
      dz2     :     0.012829  d :     0.069749
      dxz     :     0.015891
      dyz     :     0.015263
      dx2y2   :     0.016642
      dxy     :     0.009123
  1 C s       :     2.843754  s :     2.843754
      pz      :     1.054103  p :     2.945048
      px      :     0.851300
      py      :     1.039645
      dz2     :     0.017763  d :     0.141621
      dxz     :     0.039478
      dyz     :     0.020863
      dx2y2   :     0.035717
      dxy     :     0.027800
  2 H s       :     0.912015  s :     0.912015
      pz      :     0.032032  p :     0.062503
      px      :     0.018124
      py      :     0.012347
  3 O s       :     3.447005  s :     3.447005
      pz      :     1.664563  p :     4.686135
      px      :     1.249376
      py      :     1.772196
      dz2     :     0.003898  d :     0.029675
      dxz     :     0.011114
      dyz     :     0.002825
      dx2y2   :     0.005393
      dxy     :     0.006445
  4 C s       :     2.855099  s :     2.855099
      pz      :     1.000523  p :     2.966594
      px      :     0.921128
      py      :     1.044943
      dz2     :     0.041629  d :     0.162088
      dxz     :     0.033944
      dyz     :     0.012277
      dx2y2   :     0.031368
      dxy     :     0.042869
  5 C s       :     2.881279  s :     2.881279
      pz      :     0.766255  p :     2.826267
      px      :     1.029273
      py      :     1.030739
      dz2     :     0.014272  d :     0.226784
      dxz     :     0.021058
      dyz     :     0.027303
      dx2y2   :     0.104310
      dxy     :     0.059841
  6 O s       :     3.537879  s :     3.537879
      pz      :     1.322319  p :     4.575297
      px      :     1.685259
      py      :     1.567719
      dz2     :     0.004159  d :     0.031830
      dxz     :     0.002581
      dyz     :     0.005573
      dx2y2   :     0.007897
      dxy     :     0.011620
  7 C s       :     2.885780  s :     2.885780
      pz      :     0.977776  p :     3.088644
      px      :     1.039627
      py      :     1.071242
      dz2     :     0.006884  d :     0.086542
      dxz     :     0.004399
      dyz     :     0.010734
      dx2y2   :     0.036572
      dxy     :     0.027954
  8 C s       :     2.888480  s :     2.888480
      pz      :     0.877694  p :     2.992133
      px      :     1.035022
      py      :     1.079418
      dz2     :     0.006486  d :     0.087768
      dxz     :     0.004248
      dyz     :     0.014691
      dx2y2   :     0.027066
      dxy     :     0.035277
  9 C s       :     2.837151  s :     2.837151
      pz      :     1.014079  p :     2.949797
      px      :     1.038198
      py      :     0.897520
      dz2     :     0.042517  d :     0.166554
      dxz     :     0.010536
      dyz     :     0.036552
      dx2y2   :     0.027795
      dxy     :     0.049154
 10 O s       :     3.434893  s :     3.434893
      pz      :     1.709847  p :     4.666431
      px      :     1.613337
      py      :     1.343247
      dz2     :     0.003168  d :     0.025251
      dxz     :     0.003056
      dyz     :     0.007533
      dx2y2   :     0.003949
      dxy     :     0.007545
 11 H s       :     0.734406  s :     0.734406
      pz      :     0.050868  p :     0.181844
      px      :     0.075759
      py      :     0.055218
 12 H s       :     0.903137  s :     0.903137
      pz      :     0.042960  p :     0.066755
      px      :     0.012615
      py      :     0.011179
 13 H s       :     0.891193  s :     0.891193
      pz      :     0.012105  p :     0.068804
      px      :     0.041352
      py      :     0.015347
 14 H s       :     0.890753  s :     0.890753
      pz      :     0.013919  p :     0.069770
      px      :     0.024457
      py      :     0.031394
 15 H s       :     0.902959  s :     0.902959
      pz      :     0.042780  p :     0.069221
      px      :     0.011544
      py      :     0.014896
 16 H s       :     0.914988  s :     0.914988
      pz      :     0.016470  p :     0.067241
      px      :     0.009501
      py      :     0.041270
 17 H s       :     0.900425  s :     0.900425
      pz      :     0.014685  p :     0.065368
      px      :     0.035625
      py      :     0.015058
 18 H s       :     0.906542  s :     0.906542
      pz      :     0.016766  p :     0.065126
      px      :     0.012426
      py      :     0.035933
 19 H s       :     0.909662  s :     0.909662
      pz      :     0.031824  p :     0.065354
      px      :     0.020600
      py      :     0.012930


                      *****************************
                      * MAYER POPULATION ANALYSIS *
                      *****************************

  NA   - Mulliken gross atomic population
  ZA   - Total nuclear charge
  QA   - Mulliken gross atomic charge
  VA   - Mayer's total valence
  BVA  - Mayer's bonded valence
  FA   - Mayer's free valence

  ATOM       NA         ZA         QA         VA         BVA        FA
  0 C      6.0872     6.0000    -0.0872     4.0002     4.0002    -0.0000
  1 C      5.8643     6.0000     0.1357     4.0304     4.0304     0.0000
  2 H      0.9603     1.0000     0.0397     0.9824     0.9824    -0.0000
  3 O      8.3939     8.0000    -0.3939     2.0492     2.0492    -0.0000
  4 C      5.8966     6.0000     0.1034     3.8676     3.8676    -0.0000
  5 C      5.9125     6.0000     0.0875     4.1076     4.1076     0.0000
  6 O      8.1939     8.0000    -0.1939     2.3033     2.3033    -0.0000
  7 C      6.0464     6.0000    -0.0464     3.7492     3.7492     0.0000
  8 C      6.0414     6.0000    -0.0414     3.8382     3.8382    -0.0000
  9 C      5.8320     6.0000     0.1680     3.9756     3.9756    -0.0000
 10 O      8.3031     8.0000    -0.3031     2.0934     2.0934     0.0000
 11 H      0.8186     1.0000     0.1814     1.0088     1.0088     0.0000
 12 H      0.9451     1.0000     0.0549     0.9879     0.9879     0.0000
 13 H      0.9445     1.0000     0.0555     0.9949     0.9949    -0.0000
 14 H      0.9599     1.0000     0.0401     0.9978     0.9978     0.0000
 15 H      0.9562     1.0000     0.0438     1.0015     1.0015     0.0000
 16 H      0.9585     1.0000     0.0415     1.0041     1.0041    -0.0000
 17 H      0.9594     1.0000     0.0406     0.9908     0.9908     0.0000
 18 H      0.9593     1.0000     0.0407     0.9910     0.9910     0.0000
 19 H      0.9668     1.0000     0.0332     0.9936     0.9936     0.0000

  Mayer bond orders larger than 0.100000
B(  0-C ,  1-C ) :   1.0950 B(  0-C , 17-H ) :   0.9658 B(  0-C , 18-H ) :   0.9683 
B(  0-C , 19-H ) :   0.9675 B(  1-C ,  2-H ) :   0.9630 B(  1-C ,  3-O ) :   0.9361 
B(  1-C , 16-H ) :   0.9492 B(  3-O ,  4-C ) :   1.0364 B(  4-C ,  5-C ) :   0.9055 
B(  4-C ,  9-C ) :   0.9901 B(  4-C , 15-H ) :   0.8931 B(  5-C ,  6-O ) :   2.1612 
B(  5-C ,  7-C ) :   0.9774 B(  7-C ,  8-C ) :   1.7675 B(  7-C , 14-H ) :   0.9957 
B(  8-C ,  9-C ) :   0.9986 B(  8-C , 13-H ) :   0.9804 B(  9-C , 10-O ) :   1.0785 
B(  9-C , 12-H ) :   0.9094 B( 10-O , 11-H ) :   0.9765 

-------
TIMINGS
-------

Total SCF time: 0 days 0 hours 0 min 45 sec 

Total time                  ....      45.612 sec
Sum of individual times     ....      45.407 sec  ( 99.6%)

Fock matrix formation       ....      44.064 sec  ( 96.6%)
  XC integration            ....       3.343 sec  (  7.6% of F)
    Basis function eval.    ....       0.987 sec  ( 29.5% of XC)
    Density eval.           ....       0.591 sec  ( 17.7% of XC)
    XC-Functional eval.     ....       0.901 sec  ( 27.0% of XC)
    XC-Potential eval.      ....       0.771 sec  ( 23.1% of XC)
Diagonalization             ....       0.005 sec  (  0.0%)
Density matrix formation    ....       0.004 sec  (  0.0%)
Population analysis         ....       0.005 sec  (  0.0%)
Initial guess               ....       0.005 sec  (  0.0%)
Orbital Transformation      ....       0.000 sec  (  0.0%)
Orbital Orthonormalization  ....       0.003 sec  (  0.0%)
DIIS solution               ....       0.001 sec  (  0.0%)
SOSCF solution              ....       0.014 sec  (  0.0%)
Grid generation             ....       1.310 sec  (  2.9%)


-------------------------------------------------------------------------------
                          DFT DISPERSION CORRECTION                            
                                                                               
                              DFTD3 V3.1  Rev 1                                
                              USING zero damping                               
-------------------------------------------------------------------------------
The omegaB97X-D3 functional is recognized. Fit by Chai et al.
Active option DFTDOPT                   ...         3   

molecular C6(AA) [au] = 3535.251966 


            DFT-D V3
 parameters
 s6 scaling factor         :     1.0000 
 rs6 scaling factor        :     1.2810 
 s8 scaling factor         :     1.0000 
 rs8 scaling factor        :     1.0940 
 Damping factor alpha6     :    14.0000 
 Damping factor alpha8     :    16.0000 
 ad hoc parameters k1-k3   :    16.0000     1.3333    -4.0000 

 Edisp/kcal,au: -4.418544843556  -0.007041398664 
 E6   /kcal   :  -1.792014046 
 E8   /kcal   :  -2.626530798 
 % E8         :  59.443343694 

-------------------------   ----------------
Dispersion correction           -0.007041399
-------------------------   ----------------


-------------------------   --------------------
FINAL SINGLE POINT ENERGY      -497.894440830610
-------------------------   --------------------

                                *** OPTIMIZATION RUN DONE ***

                            ***************************************
                            *     ORCA property calculations      *
                            ***************************************

                                    ---------------------
                                    Active property flags
                                    ---------------------
   (+) Dipole Moment


------------------------------------------------------------------------------
                       ORCA ELECTRIC PROPERTIES CALCULATION
------------------------------------------------------------------------------

Dipole Moment Calculation                       ... on
Quadrupole Moment Calculation                   ... off
Polarizability Calculation                      ... off
GBWName                                         ... 014597325.gbw
Electron density file                           ... 014597325.scfp
The origin for moment calculation is the CENTER OF MASS  = (-0.005530,  0.051706  0.092956)

-------------
DIPOLE MOMENT
-------------
                                X             Y             Z
Electronic contribution:      7.01381       3.63489       1.98165
Nuclear contribution   :     -6.91017      -4.41344      -2.14648
                        -----------------------------------------
Total Dipole Moment    :      0.10365      -0.77855      -0.16483
                        -----------------------------------------
Magnitude (a.u.)       :      0.80253
Magnitude (Debye)      :      2.03987



--------------------
Rotational spectrum 
--------------------
 
Rotational constants in cm-1:     0.061880     0.037343     0.025138 
Rotational constants in MHz :  1855.118809  1119.529374   753.609756 

 Dipole components along the rotational axes: 
x,y,z [a.u.] :     0.016811    -0.800007    -0.061350 
x,y,z [Debye]:     0.042730    -2.033456    -0.155938 

 

Timings for individual modules:

Sum of individual times         ...     1078.627 sec (=  17.977 min)
GTO integral calculation        ...        2.686 sec (=   0.045 min)   0.2 %
SCF iterations                  ...      730.084 sec (=  12.168 min)  67.7 %
SCF Gradient evaluation         ...      345.068 sec (=   5.751 min)  32.0 %
Geometry relaxation             ...        0.789 sec (=   0.013 min)   0.1 %
                             ****ORCA TERMINATED NORMALLY****
TOTAL RUN TIME: 0 days 0 hours 17 minutes 59 seconds 759 msec
