
                                 *****************
                                 * O   R   C   A *
                                 *****************

           --- An Ab Initio, DFT and Semiempirical electronic structure package ---

                  #######################################################
                  #                        -***-                        #
                  #          Department of theory and spectroscopy      #
                  #               Directorship: Frank Neese             #
                  #        Max Planck Institute fuer Kohlenforschung    #
                  #                Kaiser Wilhelm Platz 1               #
                  #                 D-45470 Muelheim/Ruhr               #
                  #                      Germany                        #
                  #                                                     #
                  #                  All rights reserved                #
                  #                        -***-                        #
                  #######################################################


                         Program Version 4.2.0 -  RELEASE  -


 With contributions from (in alphabetic order):
   Daniel Aravena         : Magnetic Suceptibility
   Michael Atanasov       : Ab Initio Ligand Field Theory (pilot matlab implementation)
   Alexander A. Auer      : GIAO ZORA, VPT2
   Ute Becker             : Parallelization
   Giovanni Bistoni       : ED, misc. LED, open-shell LED, HFLED
   Martin Brehm           : Molecular dynamics
   Dmytro Bykov           : SCF Hessian
   Vijay G. Chilkuri      : MRCI spin determinant printing, contributions to CSF-ICE
   Dipayan Datta          : RHF DLPNO-CCSD density
   Achintya Kumar Dutta   : EOM-CC, STEOM-CC
   Dmitry Ganyushin       : Spin-Orbit,Spin-Spin,Magnetic field MRCI
   Miquel Garcia          : C-PCM Hessian, Gaussian charge scheme
   Yang Guo               : DLPNO-NEVPT2, CIM, IAO-localization
   Andreas Hansen         : Spin unrestricted coupled pair/coupled cluster methods
   Benjamin Helmich-Paris : CASSCF linear response (MC-RPA)
   Lee Huntington         : MR-EOM, pCC
   Robert Izsak           : Overlap fitted RIJCOSX, COSX-SCS-MP3, EOM
   Christian Kollmar      : KDIIS, OOCD, Brueckner-CCSD(T), CCSD density
   Simone Kossmann        : Meta GGA functionals, TD-DFT gradient, OOMP2, MP2 Hessian
   Martin Krupicka        : AUTO-CI
   Lucas Lang             : DCDCAS
   Dagmar Lenk            : GEPOL surface, SMD
   Dimitrios Liakos       : Extrapolation schemes; Compound Job, initial MDCI parallelization
   Dimitrios Manganas     : Further ROCIS development; embedding schemes
   Dimitrios Pantazis     : SARC Basis sets
   Taras Petrenko         : DFT Hessian,TD-DFT gradient, ASA, ECA, R-Raman, ABS, FL, XAS/XES, NRVS
   Peter Pinski           : DLPNO-MP2, DLPNO-MP2 Gradient
   Christoph Reimann      : Effective Core Potentials
   Marius Retegan         : Local ZFS, SOC
   Christoph Riplinger    : Optimizer, TS searches, QM/MM, DLPNO-CCSD(T), (RO)-DLPNO pert. Triples
   Tobias Risthaus        : Range-separated hybrids, TD-DFT gradient, RPA, STAB
   Michael Roemelt        : Original ROCIS implementation
   Masaaki Saitow         : Open-shell DLPNO-CCSD energy and density
   Barbara Sandhoefer     : DKH picture change effects
   Avijit Sen             : IP-ROCIS
   Kantharuban Sivalingam : CASSCF convergence, NEVPT2, FIC-MRCI
   Bernardo de Souza      : ESD, SOC TD-DFT
   Georgi Stoychev        : AutoAux, RI-MP2 NMR
   Willem Van den Heuvel  : Paramagnetic NMR
   Boris Wezisla          : Elementary symmetry handling
   Frank Wennmohs         : Technical directorship


 We gratefully acknowledge several colleagues who have allowed us to
 interface, adapt or use parts of their codes:
   Stefan Grimme, W. Hujo, H. Kruse,             : VdW corrections, initial TS optimization,
                  C. Bannwarth                     DFT functionals, gCP, sTDA/sTD-DF
   Ed Valeev, F. Pavosevic, A. Kumar             : LibInt (2-el integral package), F12 methods
   Garnet Chan, S. Sharma, J. Yang, R. Olivares  : DMRG
   Ulf Ekstrom                                   : XCFun DFT Library
   Mihaly Kallay                                 : mrcc  (arbitrary order and MRCC methods)
   Andreas Klamt, Michael Diedenhofen            : otool_cosmo (COSMO solvation model)
   Jiri Pittner, Ondrej Demel                    : Mk-CCSD
   Frank Weinhold                                : gennbo (NPA and NBO analysis)
   Christopher J. Cramer and Donald G. Truhlar   : smd solvation model
   Lars Goerigk                                  : TD-DFT with DH, B97 family of functionals
   V. Asgeirsson, H. Jonsson                     : NEB implementation
   FAccTs GmbH                                   : IRC, NEB, NEB-TS, Multilevel, MM, QM/MM, CI optimization
   S Lehtola, MJT Oliveira, MAL Marques          : LibXC Library


 Your calculation uses the libint2 library for the computation of 2-el integrals
 For citations please refer to: http://libint.valeyev.net

 Your ORCA version has been built with support for libXC version: 4.2.3
 For citations please refer to: https://tddft.org/programs/libxc/

 This ORCA versions uses:
   CBLAS   interface :  Fast vector & matrix operations
   LAPACKE interface :  Fast linear algebra routines
   SCALAPACK package :  Parallel linear algebra routines


Your calculation utilizes the atom-pairwise dispersion correction
with the zero-damping scheme (D30)
Cite in your paper:
S.Grimme, J.Antony, S.Ehrlich and H.Krieg, J.Chem.Phys., 132, (2010), 154104 
   

XCFun DFT library Copyright 2009-2010 Ulf Ekstrom and contributors.
See http://admol.org/xcfun for more information. This is free soft-
ware; see the source code for copying conditions. There is ABSOLUTELY
NO WARRANTY; not even for MERCHANTABILITY or FITNESS FOR A PARTICULAR
PURPOSE. For details see the documentation. Scientific users of this 
library should cite U. Ekstrom, L. Visscher, R. Bast, A. J. Thorvald-
sen and K. Ruud; J.Chem.Theor.Comp. 2010, DOI: 10.1021/ct100117s
XCFun Version 0.99 
----- Orbital basis set information -----
Your calculation utilizes the basis: def2-SVP
   F. Weigend and R. Ahlrichs, Phys. Chem. Chem. Phys. 7, 3297 (2005).

================================================================================
                                        WARNINGS
                       Please study these warnings very carefully!
================================================================================


WARNING: Geometry Optimization
  ===> : Switching off AutoStart
         For restart on a previous wavefunction, please use MOREAD

INFO   : the flag for use of LIBINT has been found!

================================================================================
                                       INPUT FILE
================================================================================
NAME = 023440332.inp
|  1> # ORCA input file
|  2> # -54.17143476
|  3> ! wB97X-D3 def2-SVP Opt
|  4> * xyz 0 1
|  5>    C       -3.90690        -1.47900         0.27410
|  6>    H       -3.32190        -2.20110         0.83640
|  7>    H       -4.71650        -2.01190        -0.21870
|  8>    H       -4.33950        -0.76310         0.97000
|  9>    C       -3.04330        -0.77120        -0.76460
| 10>    C       -1.98910         0.14660        -0.15140
| 11>    C       -0.99020        -0.60490         0.72580
| 12>    O       -0.44240        -1.67210        -0.01780
| 13>    C        0.44710        -2.49470         0.70080
| 14>    C        1.84120        -1.89620         0.95800
| 15>    O        2.68850        -1.95060        -0.17100
| 16>    C        2.40090        -1.00440        -1.17700
| 17>    C        2.86720         0.41500        -0.83100
| 18>    O        1.91720         1.05400        -0.00930
| 19>    C        2.24340         2.39680         0.28400
| 20>    C        1.14900         2.99540         1.15260
| 21>    H        1.06250         2.43570         2.08090
| 22>    H        0.19600         2.96430         0.63050
| 23>    H        1.39190         4.02850         1.38510
| 24>    H        3.21470         2.43470         0.80350
| 25>    H        2.34020         2.96510        -0.65440
| 26>    H        3.84100         0.36620        -0.31990
| 27>    H        2.99520         0.98870        -1.76260
| 28>    H        1.32990        -0.98800        -1.40390
| 29>    H        2.95410        -1.34920        -2.05390
| 30>    H        2.34270        -2.50340         1.71610
| 31>    H        1.75270        -0.86770         1.32160
| 32>    H        0.00050        -2.77150         1.66850
| 33>    H        0.56180        -3.39460         0.09020
| 34>    H       -1.49270        -0.99290         1.62660
| 35>    H       -0.20520         0.09320         1.04310
| 36>    C       -1.31050         1.10980        -1.14250
| 37>    H       -1.69960         1.07810        -2.16370
| 38>    H       -0.21990         1.07590        -1.15480
| 39>    O       -1.80090         2.24920        -0.42600
| 40>    C       -2.51810         1.43540         0.50100
| 41>    H       -2.20300         1.61580         1.53290
| 42>    H       -3.59810         1.58800         0.41590
| 43>    H       -2.52810        -1.51190        -1.37800
| 44>    H       -3.68360        -0.17220        -1.41640
| 45> *
| 46> 
| 47>                          ****END OF INPUT****
================================================================================

                       *****************************
                       * Geometry Optimization Run *
                       *****************************

Geometry optimization settings:
Update method            Update   .... BFGS
Choice of coordinates    CoordSys .... Z-matrix Internals
Initial Hessian          InHess   .... Almoef's Model

Convergence Tolerances:
Energy Change            TolE     ....  5.0000e-06 Eh
Max. Gradient            TolMAXG  ....  3.0000e-04 Eh/bohr
RMS Gradient             TolRMSG  ....  1.0000e-04 Eh/bohr
Max. Displacement        TolMAXD  ....  4.0000e-03 bohr
RMS Displacement         TolRMSD  ....  2.0000e-03 bohr
Strict Convergence                ....  False
------------------------------------------------------------------------------
                        ORCA OPTIMIZATION COORDINATE SETUP
------------------------------------------------------------------------------

The optimization will be done in new redundant internal coordinates
Making redundant internal coordinates   ...  (new redundants) done
Evaluating the initial hessian          ...  (Almloef) done
Evaluating the coordinates              ...  done
Calculating the B-matrix                .... done
Calculating the G-matrix                .... done
Diagonalizing the G-matrix              .... done
Small eigenvalue found = 1.699e-03
Small eigenvalue found = 4.255e-03
Small eigenvalue found = 1.016e-02
Small eigenvalue found = 1.725e-02
Small eigenvalue found = 1.934e-02
The first mode is                       ....   99
The number of degrees of freedom        ....  114

    -----------------------------------------------------------------
                    Redundant Internal Coordinates


    -----------------------------------------------------------------
         Definition                    Initial Value    Approx d2E/dq
    -----------------------------------------------------------------
      1. B(H   1,C   0)                  1.0862         0.365160   
      2. B(H   2,C   0)                  1.0873         0.363650   
      3. B(H   3,C   0)                  1.0881         0.362640   
      4. B(C   4,C   0)                  1.5250         0.380473   
      5. B(C   5,C   4)                  1.5263         0.378634   
      6. B(C   6,C   5)                  1.5271         0.377576   
      7. B(O   7,C   6)                  1.4114         0.517362   
      8. B(C   8,O   7)                  1.4086         0.522560   
      9. B(C   9,C   8)                  1.5388         0.361707   
     10. B(O  10,C   9)                  1.4126         0.514961   
     11. B(C  11,O  10)                  1.4107         0.518641   
     12. B(C  12,C  11)                  1.5336         0.368702   
     13. B(O  13,C  12)                  1.4093         0.521373   
     14. B(C  14,O  13)                  1.4126         0.514944   
     15. B(C  15,C  14)                  1.5200         0.387507   
     16. B(H  16,C  15)                  1.0874         0.363526   
     17. B(H  17,C  15)                  1.0871         0.363970   
     18. B(H  18,C  15)                  1.0864         0.364840   
     19. B(H  19,C  14)                  1.1022         0.344377   
     20. B(H  20,C  14)                  1.1013         0.345418   
     21. B(H  21,C  12)                  1.1009         0.346017   
     22. B(H  22,C  12)                  1.1015         0.345151   
     23. B(H  23,C  11)                  1.0949         0.353683   
     24. B(H  24,C  11)                  1.0926         0.356619   
     25. B(H  25,C   9)                  1.0931         0.355997   
     26. B(H  26,C   9)                  1.0945         0.354244   
     27. B(H  27,C   8)                  1.1011         0.345658   
     28. B(H  28,C   8)                  1.0935         0.355460   
     29. B(H  29,C   6)                  1.1020         0.344520   
     30. B(H  30,C   6)                  1.0974         0.350465   
     31. B(C  31,C   5)                  1.5397         0.360559   
     32. B(H  32,C  31)                  1.0933         0.355792   
     33. B(H  33,C  31)                  1.0912         0.358521   
     34. B(O  34,H  17)                  2.3696         0.002931   
     35. B(O  34,C  31)                  1.4325         0.478682   
     36. B(C  35,O  34)                  1.4269         0.488700   
     37. B(C  35,C   5)                  1.5383         0.362310   
     38. B(H  36,C  35)                  1.0939         0.354958   
     39. B(H  37,C  35)                  1.0940         0.354792   
     40. B(H  38,C   4)                  1.0910         0.358752   
     41. B(H  39,C   4)                  1.0925         0.356765   
     42. A(H   2,C   0,C   4)          109.9025         0.325821   
     43. A(H   1,C   0,H   3)          108.6893         0.291800   
     44. A(H   3,C   0,C   4)          110.8171         0.325672   
     45. A(H   1,C   0,C   4)          110.8640         0.326043   
     46. A(H   1,C   0,H   2)          108.0481         0.291928   
     47. A(H   2,C   0,H   3)          108.4389         0.291610   
     48. A(C   0,C   4,H  38)          109.5877         0.325095   
     49. A(C   5,C   4,H  39)          108.3478         0.324540   
     50. A(C   0,C   4,C   5)          113.3640         0.365330   
     51. A(C   0,C   4,H  39)          109.2036         0.324798   
     52. A(H  38,C   4,H  39)          108.2735         0.290244   
     53. A(C   5,C   4,H  38)          107.9360         0.324836   
     54. A(C   4,C   5,C  35)          115.8897         0.362288   
     55. A(C   6,C   5,C  31)          112.9126         0.361815   
     56. A(C   6,C   5,C  35)          113.1794         0.362115   
     57. A(C   4,C   5,C  31)          114.9596         0.361988   
     58. A(C  31,C   5,C  35)           84.2864         0.359279   
     59. A(C   4,C   5,C   6)          112.7457         0.364852   
     60. A(C   5,C   6,H  29)          110.1531         0.322537   
     61. A(H  29,C   6,H  30)          108.2886         0.287606   
     62. A(O   7,C   6,H  30)          110.8373         0.338695   
     63. A(O   7,C   6,H  29)          109.9632         0.337730   
     64. A(C   5,C   6,O   7)          108.8656         0.382612   
     65. A(C   5,C   6,H  30)          108.7203         0.323443   
     66. A(C   6,O   7,C   8)          114.7011         0.402422   
     67. A(C   9,C   8,H  28)          108.5647         0.321921   
     68. A(H  27,C   8,H  28)          109.0495         0.288392   
     69. A(O   7,C   8,H  28)          105.1858         0.340064   
     70. A(O   7,C   8,H  27)          109.8162         0.338480   
     71. A(O   7,C   8,C   9)          115.4817         0.380431   
     72. A(C   9,C   8,H  27)          108.5617         0.320451   
     73. A(C   8,C   9,O  10)          113.2562         0.379467   
     74. A(O  10,C   9,H  26)          110.4998         0.339039   
     75. A(C   8,C   9,H  26)          110.3510         0.321740   
     76. A(O  10,C   9,H  25)          104.9340         0.339318   
     77. A(C   8,C   9,H  25)          108.3917         0.322000   
     78. A(H  25,C   9,H  26)          109.1895         0.289571   
     79. A(C   9,O  10,C  11)          114.9503         0.401559   
     80. A(O  10,C  11,C  12)          113.4480         0.381199   
     81. A(H  23,C  11,H  24)          109.4909         0.289578   
     82. A(C  12,C  11,H  24)          108.6143         0.323105   
     83. A(O  10,C  11,H  24)          104.9181         0.339821   
     84. A(C  12,C  11,H  23)          109.2881         0.322668   
     85. A(O  10,C  11,H  23)          110.9316         0.339352   
     86. A(C  11,C  12,H  22)          109.0603         0.321380   
     87. A(C  11,C  12,O  13)          110.2582         0.381547   
     88. A(O  13,C  12,H  21)          110.2247         0.338410   
     89. A(C  11,C  12,H  21)          109.4319         0.321512   
     90. A(H  21,C  12,H  22)          108.2368         0.287115   
     91. A(O  13,C  12,H  22)          109.5906         0.338269   
     92. A(C  12,O  13,C  14)          113.3540         0.401928   
     93. A(H  19,C  14,H  20)          107.8434         0.286937   
     94. A(C  15,C  14,H  20)          110.3021         0.324052   
     95. A(O  13,C  14,H  20)          109.5049         0.337613   
     96. A(C  15,C  14,H  19)          110.5862         0.323892   
     97. A(O  13,C  14,H  19)          109.5149         0.337443   
     98. A(O  13,C  14,C  15)          109.0703         0.384030   
     99. A(H  17,C  15,H  18)          109.0250         0.291928   
    100. A(H  16,C  15,H  18)          108.9372         0.291872   
    101. A(C  14,C  15,H  18)          109.6206         0.326981   
    102. A(H  16,C  15,H  17)          108.9980         0.291763   
    103. A(C  14,C  15,H  17)          110.2102         0.326852   
    104. A(C  14,C  15,H  16)          110.0229         0.326786   
    105. A(H  33,C  31,O  34)          111.8696         0.335607   
    106. A(H  32,C  31,O  34)          111.6182         0.335181   
    107. A(C   5,C  31,O  34)           91.4175         0.374498   
    108. A(H  32,C  31,H  33)          110.1378         0.290090   
    109. A(C   5,C  31,H  33)          115.3615         0.322206   
    110. A(C   5,C  31,H  32)          115.2314         0.321803   
    111. A(C  31,O  34,C  35)           92.4862         0.392323   
    112. A(H  36,C  35,H  37)          109.5557         0.289508   
    113. A(O  34,C  35,H  37)          111.4752         0.336180   
    114. A(C   5,C  35,H  37)          115.0452         0.321910   
    115. A(O  34,C  35,H  36)          111.9626         0.336207   
    116. A(C   5,C  35,H  36)          116.0504         0.321934   
    117. A(C   5,C  35,O  34)           91.6878         0.376154   
    118. D(H  38,C   4,C   0,H   3)    173.4401         0.011536   
    119. D(C   5,C   4,C   0,H   1)    -67.9925         0.011536   
    120. D(H  38,C   4,C   0,H   2)    -66.7233         0.011536   
    121. D(H  39,C   4,C   0,H   3)    -68.1116         0.011536   
    122. D(C   5,C   4,C   0,H   2)    172.6270         0.011536   
    123. D(C   5,C   4,C   0,H   3)     52.7903         0.011536   
    124. D(H  39,C   4,C   0,H   1)    171.1056         0.011536   
    125. D(H  38,C   4,C   0,H   1)     52.6573         0.011536   
    126. D(H  39,C   4,C   0,H   2)     51.7250         0.011536   
    127. D(C  31,C   5,C   4,C   0)   -167.0317         0.011430   
    128. D(C  31,C   5,C   4,H  38)     71.3890         0.011430   
    129. D(C   6,C   5,C   4,H  39)   -177.0079         0.011430   
    130. D(C   6,C   5,C   4,H  38)    -59.9706         0.011430   
    131. D(C   6,C   5,C   4,C   0)     61.6087         0.011430   
    132. D(C  35,C   5,C   4,H  38)    167.3496         0.011430   
    133. D(C  35,C   5,C   4,C   0)    -71.0711         0.011430   
    134. D(C  35,C   5,C   4,H  39)     50.3123         0.011430   
    135. D(C  31,C   5,C   4,H  39)    -45.6482         0.011430   
    136. D(H  30,C   6,C   5,C  31)     41.6269         0.011370   
    137. D(H  30,C   6,C   5,C   4)    174.0005         0.011370   
    138. D(H  29,C   6,C   5,C  35)     66.5015         0.011370   
    139. D(H  29,C   6,C   5,C  31)    160.1367         0.011370   
    140. D(H  29,C   6,C   5,C   4)    -67.4897         0.011370   
    141. D(O   7,C   6,C   5,C  35)   -172.8524         0.011370   
    142. D(O   7,C   6,C   5,C   4)     53.1564         0.011370   
    143. D(H  30,C   6,C   5,C  35)    -52.0083         0.011370   
    144. D(O   7,C   6,C   5,C  31)    -79.2172         0.011370   
    145. D(C   8,O   7,C   6,H  30)     63.6876         0.021212   
    146. D(C   8,O   7,C   6,H  29)    -56.0141         0.021212   
    147. D(C   8,O   7,C   6,C   5)   -176.7769         0.021212   
    148. D(C   9,C   8,O   7,C   6)    -75.1417         0.021658   
    149. D(H  28,C   8,O   7,C   6)    165.2016         0.021658   
    150. D(H  27,C   8,O   7,C   6)     47.9894         0.021658   
    151. D(H  26,C   9,C   8,H  28)    164.5308         0.010489   
    152. D(H  26,C   9,C   8,H  27)    -77.0467         0.010489   
    153. D(H  26,C   9,C   8,O   7)     46.7450         0.010489   
    154. D(H  25,C   9,C   8,H  28)    -75.9458         0.010489   
    155. D(H  25,C   9,C   8,H  27)     42.4767         0.010489   
    156. D(H  25,C   9,C   8,O   7)    166.2684         0.010489   
    157. D(O  10,C   9,C   8,H  28)     40.0617         0.010489   
    158. D(O  10,C   9,C   8,H  27)    158.4842         0.010489   
    159. D(O  10,C   9,C   8,O   7)    -77.7241         0.010489   
    160. D(C  11,O  10,C   9,H  26)    -48.9600         0.021008   
    161. D(C  11,O  10,C   9,H  25)   -166.5346         0.021008   
    162. D(C  11,O  10,C   9,C   8)     75.4283         0.021008   
    163. D(H  24,C  11,O  10,C   9)   -165.6151         0.021322   
    164. D(C  12,C  11,O  10,C   9)     75.9854         0.021322   
    165. D(H  23,C  11,O  10,C   9)    -47.4771         0.021322   
    166. D(H  22,C  12,C  11,H  24)     40.8599         0.010872   
    167. D(H  22,C  12,C  11,H  23)    -78.5388         0.010872   
    168. D(H  22,C  12,C  11,O  10)    157.1035         0.010872   
    169. D(H  21,C  12,C  11,H  24)    -77.3684         0.010872   
    170. D(H  21,C  12,C  11,H  23)    163.2330         0.010872   
    171. D(H  21,C  12,C  11,O  10)     38.8752         0.010872   
    172. D(O  13,C  12,C  11,H  24)    161.2349         0.010872   
    173. D(O  13,C  12,C  11,H  23)     41.8362         0.010872   
    174. D(O  13,C  12,C  11,O  10)    -82.5215         0.010872   
    175. D(C  14,O  13,C  12,H  22)    -56.3540         0.021556   
    176. D(C  14,O  13,C  12,H  21)     62.6663         0.021556   
    177. D(C  14,O  13,C  12,C  11)   -176.4097         0.021556   
    178. D(H  20,C  14,O  13,C  12)     58.3227         0.021007   
    179. D(H  19,C  14,O  13,C  12)    -59.7389         0.021007   
    180. D(C  15,C  14,O  13,C  12)    179.1146         0.021007   
    181. D(H  18,C  15,C  14,H  20)    -59.7912         0.011945   
    182. D(H  18,C  15,C  14,O  13)    179.9060         0.011945   
    183. D(H  17,C  15,C  14,H  20)     60.2098         0.011945   
    184. D(H  17,C  15,C  14,H  19)    179.4159         0.011945   
    185. D(H  17,C  15,C  14,O  13)    -60.0930         0.011945   
    186. D(H  16,C  15,C  14,H  20)   -179.5674         0.011945   
    187. D(H  18,C  15,C  14,H  19)     59.4149         0.011945   
    188. D(H  16,C  15,C  14,H  19)    -60.3613         0.011945   
    189. D(H  16,C  15,C  14,O  13)     60.1298         0.011945   
    190. D(O  34,C  31,C   5,C  35)      2.5489         0.010428   
    191. D(O  34,C  31,C   5,C   6)   -110.2296         0.010428   
    192. D(O  34,C  31,C   5,C   4)    118.4906         0.010428   
    193. D(H  33,C  31,C   5,C  35)    117.6414         0.010428   
    194. D(H  33,C  31,C   5,C   6)      4.8629         0.010428   
    195. D(H  33,C  31,C   5,C   4)   -126.4169         0.010428   
    196. D(H  32,C  31,C   5,C  35)   -112.2264         0.010428   
    197. D(H  32,C  31,C   5,C   6)    134.9950         0.010428   
    198. D(H  32,C  31,C   5,C   4)      3.7152         0.010428   
    199. D(C  35,O  34,C  31,H  33)   -120.8765         0.019596   
    200. D(C  35,O  34,C  31,H  32)    115.1983         0.019596   
    201. D(C  35,O  34,C  31,C   5)     -2.7371         0.019596   
    202. D(H  37,C  35,O  34,C  31)   -115.0809         0.020450   
    203. D(C   5,C  35,O  34,C  31)      2.7398         0.020450   
    204. D(H  37,C  35,C   5,C  31)    112.1514         0.010522   
    205. D(H  37,C  35,C   5,C   6)   -135.3421         0.010522   
    206. D(H  37,C  35,C   5,C   4)     -2.8623         0.010522   
    207. D(H  36,C  35,C   5,C  31)   -118.0826         0.010522   
    208. D(H  36,C  35,C   5,C   6)     -5.5762         0.010522   
    209. D(H  36,C  35,C   5,C   4)    126.9036         0.010522   
    210. D(O  34,C  35,C   5,C  31)     -2.5593         0.010522   
    211. D(H  36,C  35,O  34,C  31)    121.7925         0.020450   
    212. D(O  34,C  35,C   5,C   6)    109.9471         0.010522   
    213. D(O  34,C  35,C   5,C   4)   -117.5731         0.010522   
    -----------------------------------------------------------------

Number of atoms                         .... 40
Number of degrees of freedom            .... 213

         *************************************************************
         *                GEOMETRY OPTIMIZATION CYCLE   1            *
         *************************************************************
---------------------------------
CARTESIAN COORDINATES (ANGSTROEM)
---------------------------------
  C     -3.906900   -1.479000    0.274100
  H     -3.321900   -2.201100    0.836400
  H     -4.716500   -2.011900   -0.218700
  H     -4.339500   -0.763100    0.970000
  C     -3.043300   -0.771200   -0.764600
  C     -1.989100    0.146600   -0.151400
  C     -0.990200   -0.604900    0.725800
  O     -0.442400   -1.672100   -0.017800
  C      0.447100   -2.494700    0.700800
  C      1.841200   -1.896200    0.958000
  O      2.688500   -1.950600   -0.171000
  C      2.400900   -1.004400   -1.177000
  C      2.867200    0.415000   -0.831000
  O      1.917200    1.054000   -0.009300
  C      2.243400    2.396800    0.284000
  C      1.149000    2.995400    1.152600
  H      1.062500    2.435700    2.080900
  H      0.196000    2.964300    0.630500
  H      1.391900    4.028500    1.385100
  H      3.214700    2.434700    0.803500
  H      2.340200    2.965100   -0.654400
  H      3.841000    0.366200   -0.319900
  H      2.995200    0.988700   -1.762600
  H      1.329900   -0.988000   -1.403900
  H      2.954100   -1.349200   -2.053900
  H      2.342700   -2.503400    1.716100
  H      1.752700   -0.867700    1.321600
  H      0.000500   -2.771500    1.668500
  H      0.561800   -3.394600    0.090200
  H     -1.492700   -0.992900    1.626600
  H     -0.205200    0.093200    1.043100
  C     -1.310500    1.109800   -1.142500
  H     -1.699600    1.078100   -2.163700
  H     -0.219900    1.075900   -1.154800
  O     -1.800900    2.249200   -0.426000
  C     -2.518100    1.435400    0.501000
  H     -2.203000    1.615800    1.532900
  H     -3.598100    1.588000    0.415900
  H     -2.528100   -1.511900   -1.378000
  H     -3.683600   -0.172200   -1.416400

----------------------------
CARTESIAN COORDINATES (A.U.)
----------------------------
  NO LB      ZA    FRAG     MASS         X           Y           Z
   0 C     6.0000    0    12.011   -7.382971   -2.794905    0.517974
   1 H     1.0000    0     1.008   -6.277481   -4.159476    1.580567
   2 H     1.0000    0     1.008   -8.912893   -3.801940   -0.413283
   3 H     1.0000    0     1.008   -8.200467   -1.442050    1.833034
   4 C     6.0000    0    12.011   -5.751004   -1.457357   -1.444885
   5 C     6.0000    0    12.011   -3.758854    0.277034   -0.286105
   6 C     6.0000    0    12.011   -1.871207   -1.143095    1.371563
   7 O     8.0000    0    15.999   -0.836015   -3.159811   -0.033637
   8 C     6.0000    0    12.011    0.844897   -4.714300    1.324320
   9 C     6.0000    0    12.011    3.479364   -3.583299    1.810358
  10 O     8.0000    0    15.999    5.080529   -3.686100   -0.323143
  11 C     6.0000    0    12.011    4.537043   -1.898041   -2.224208
  12 C     6.0000    0    12.011    5.418223    0.784236   -1.570362
  13 O     8.0000    0    15.999    3.622983    1.991771   -0.017574
  14 C     6.0000    0    12.011    4.239412    4.529296    0.536682
  15 C     6.0000    0    12.011    2.171295    5.660486    2.178098
  16 H     1.0000    0     1.008    2.007834    4.602806    3.932331
  17 H     1.0000    0     1.008    0.370386    5.601715    1.191472
  18 H     1.0000    0     1.008    2.630310    7.612762    2.617460
  19 H     1.0000    0     1.008    6.074903    4.600916    1.518395
  20 H     1.0000    0     1.008    4.422337    5.603227   -1.236637
  21 H     1.0000    0     1.008    7.258438    0.692018   -0.604523
  22 H     1.0000    0     1.008    5.660108    1.868372   -3.330831
  23 H     1.0000    0     1.008    2.513147   -1.867049   -2.652987
  24 H     1.0000    0     1.008    5.582440   -2.549618   -3.881309
  25 H     1.0000    0     1.008    4.427061   -4.730740    3.242959
  26 H     1.0000    0     1.008    3.312123   -1.639715    2.497462
  27 H     1.0000    0     1.008    0.000945   -5.237376    3.153008
  28 H     1.0000    0     1.008    1.061648   -6.414864    0.170453
  29 H     1.0000    0     1.008   -2.820794   -1.876309    3.073829
  30 H     1.0000    0     1.008   -0.387772    0.176122    1.971173
  31 C     6.0000    0    12.011   -2.476486    2.097218   -2.159012
  32 H     1.0000    0     1.008   -3.211779    2.037314   -4.088800
  33 H     1.0000    0     1.008   -0.415551    2.033156   -2.182256
  34 O     8.0000    0    15.999   -3.403208    4.250372   -0.805023
  35 C     6.0000    0    12.011   -4.758519    2.712513    0.946753
  36 H     1.0000    0     1.008   -4.163067    3.053419    2.896761
  37 H     1.0000    0     1.008   -6.799424    3.000885    0.785937
  38 H     1.0000    0     1.008   -4.777417   -2.857077   -2.604043
  39 H     1.0000    0     1.008   -6.960995   -0.325411   -2.676608

--------------------------------
INTERNAL COORDINATES (ANGSTROEM)
--------------------------------
 C      0   0   0     0.000000000000     0.00000000     0.00000000
 H      1   0   0     1.086201960963     0.00000000     0.00000000
 H      1   2   0     1.087329945325   108.04809573     0.00000000
 H      1   2   3     1.088086568247   108.68931253   117.47779686
 C      1   2   3     1.525019176929   110.86403268   239.51204664
 C      5   1   2     1.526338337329   113.36395434   292.00752118
 C      6   5   1     1.527099636566   112.74572093    61.60867824
 O      7   6   5     1.411361626232   108.86562148    53.15644311
 C      8   7   6     1.408640113727   114.70108105   183.22305220
 C      9   8   7     1.538788127066   115.48168272   284.85832327
 O     10   9   8     1.412627923411   113.25617273   282.27590059
 C     11  10   9     1.410689264154   114.95028028    75.42829068
 C     12  11  10     1.533573620665   113.44803654    75.98537710
 O     13  12  11     1.409259340931   110.25821175   277.47846571
 C     14  13  12     1.412636956192   113.35400235   183.59030206
 C     15  14  13     1.520032657544   109.07027214   179.11456501
 H     16  15  14     1.087422286878   110.02285446    60.12983854
 H     16  15  14     1.087089977877   110.21018647   299.90698187
 H     16  15  14     1.086440182431   109.62064160   179.90604532
 H     15  14  13     1.102152598327   109.51490520   300.26109963
 H     15  14  13     1.101330872172   109.50493889    58.32272218
 H     13  12  11     1.100859250767   109.43189007    38.87522646
 H     13  12  11     1.101541760443   109.06033924   157.10347444
 H     12  11  10     1.094894319101   110.93164990   312.52287307
 H     12  11  10     1.092643990511   104.91814398   194.38493319
 H     10   9   8     1.093119252415   108.39169622   166.26839884
 H     10   9   8     1.094463092114   110.35103632    46.74502479
 H      9   8   7     1.101141721124   109.81623902    47.98937638
 H      9   8   7     1.093530273929   105.18583483   165.20162494
 H      7   6   5     1.102039423070   110.15306085   292.51029130
 H      7   6   5     1.097382294371   108.72031495   174.00053708
 C      6   5   1     1.539653016105   114.95955690   192.96833123
 H     32   6   5     1.093276332864   115.23140548     3.71524742
 H     32   6   5     1.091196068541   115.36153713   233.58313467
 O     32   6   5     1.432514143037    91.41752715   118.49061988
 C     35  32   6     1.426876056285    92.48618882   357.26290967
 H     36  35  32     1.093914887000   111.96262237   121.79251518
 H     36  35  32     1.094042398630   111.47518743   244.91913176
 H      5   1   2     1.091021122619   109.58772121    52.65725757
 H      5   1   2     1.092532988060   109.20356707   171.10556167

---------------------------
INTERNAL COORDINATES (A.U.)
---------------------------
 C      0   0   0     0.000000000000     0.00000000     0.00000000
 H      1   0   0     2.052624232348     0.00000000     0.00000000
 H      1   2   0     2.054755813875   108.04809573     0.00000000
 H      1   2   3     2.056185623985   108.68931253   117.47779686
 C      1   2   3     2.881868593373   110.86403268   239.51204664
 C      5   1   2     2.884361445256   113.36395434   292.00752118
 C      6   5   1     2.885800092320   112.74572093    61.60867824
 O      7   6   5     2.667086949504   108.86562148    53.15644311
 C      8   7   6     2.661944036199   114.70108105   183.22305220
 C      9   8   7     2.907888138285   115.48168272   284.85832327
 O     10   9   8     2.669479904376   113.25617273   282.27590059
 C     11  10   9     2.665816369314   114.95028028    75.42829068
 C     12  11  10     2.898034149263   113.44803654    75.98537710
 O     13  12  11     2.663114206029   110.25821175   277.47846571
 C     14  13  12     2.669496973859   113.35400235   183.59030206
 C     15  14  13     2.872445437374   109.07027214   179.11456501
 H     16  15  14     2.054930314123   110.02285446    60.12983854
 H     16  15  14     2.054302341118   110.21018647   299.90698187
 H     16  15  14     2.053074405681   109.62064160   179.90604532
 H     15  14  13     2.082766568629   109.51490520   300.26109963
 H     15  14  13     2.081213731238   109.50493889    58.32272218
 H     13  12  11     2.080322495944   109.43189007    38.87522646
 H     13  12  11     2.081612252315   109.06033924   157.10347444
 H     12  11  10     2.069050408687   110.93164990   312.52287307
 H     12  11  10     2.064797903941   104.91814398   194.38493319
 H     10   9   8     2.065696018781   108.39169622   166.26839884
 H     10   9   8     2.068235507780   110.35103632    46.74502479
 H      9   8   7     2.080856287559   109.81623902    47.98937638
 H      9   8   7     2.066472736878   105.18583483   165.20162494
 H      7   6   5     2.082552698386   110.15306085   292.51029130
 H      7   6   5     2.073752000576   108.72031495   174.00053708
 C      6   5   1     2.909522541704   114.95955690   192.96833123
 H     32   6   5     2.065992857810   115.23140548     3.71524742
 H     32   6   5     2.062061727955   115.36153713   233.58313467
 O     32   6   5     2.707059413308    91.41752715   118.49061988
 C     35  32   6     2.696404973429    92.48618882   357.26290967
 H     36  35  32     2.067199550249   111.96262237   121.79251518
 H     36  35  32     2.067440512309   111.47518743   244.91913176
 H      5   1   2     2.061731128073   109.58772121    52.65725757
 H      5   1   2     2.064588139709   109.20356707   171.10556167

---------------------
BASIS SET INFORMATION
---------------------
There are 3 groups of distinct atoms

 Group   1 Type C   : 7s4p1d contracted to 3s2p1d pattern {511/31/1}
 Group   2 Type H   : 4s1p contracted to 2s1p pattern {31/1}
 Group   3 Type O   : 7s4p1d contracted to 3s2p1d pattern {511/31/1}

Atom   0C    basis set group =>   1
Atom   1H    basis set group =>   2
Atom   2H    basis set group =>   2
Atom   3H    basis set group =>   2
Atom   4C    basis set group =>   1
Atom   5C    basis set group =>   1
Atom   6C    basis set group =>   1
Atom   7O    basis set group =>   3
Atom   8C    basis set group =>   1
Atom   9C    basis set group =>   1
Atom  10O    basis set group =>   3
Atom  11C    basis set group =>   1
Atom  12C    basis set group =>   1
Atom  13O    basis set group =>   3
Atom  14C    basis set group =>   1
Atom  15C    basis set group =>   1
Atom  16H    basis set group =>   2
Atom  17H    basis set group =>   2
Atom  18H    basis set group =>   2
Atom  19H    basis set group =>   2
Atom  20H    basis set group =>   2
Atom  21H    basis set group =>   2
Atom  22H    basis set group =>   2
Atom  23H    basis set group =>   2
Atom  24H    basis set group =>   2
Atom  25H    basis set group =>   2
Atom  26H    basis set group =>   2
Atom  27H    basis set group =>   2
Atom  28H    basis set group =>   2
Atom  29H    basis set group =>   2
Atom  30H    basis set group =>   2
Atom  31C    basis set group =>   1
Atom  32H    basis set group =>   2
Atom  33H    basis set group =>   2
Atom  34O    basis set group =>   3
Atom  35C    basis set group =>   1
Atom  36H    basis set group =>   2
Atom  37H    basis set group =>   2
Atom  38H    basis set group =>   2
Atom  39H    basis set group =>   2
------------------------------------------------------------------------------
                           ORCA GTO INTEGRAL CALCULATION
------------------------------------------------------------------------------

                         BASIS SET STATISTICS AND STARTUP INFO

 # of primitive gaussian shells          ...  312
 # of primitive gaussian functions       ...  552
 # of contracted shells                  ...  168
 # of contracted basis functions         ...  344
 Highest angular momentum                ...    2
 Maximum contraction depth               ...    5
 Integral package used                   ... LIBINT
 Integral threshhold            Thresh   ...  2.500e-11
 Primitive cut-off              TCut     ...  2.500e-12


------------------------------ INTEGRAL EVALUATION ----------------------------


 * One electron integrals 
 Pre-screening matrix                    ... done
 Shell pair data                         ... done (   0.004 sec)

-------------------------------------------------------------------------------
                                 ORCA SCF
-------------------------------------------------------------------------------

------------
SCF SETTINGS
------------
Hamiltonian:
 Density Functional     Method          .... DFT(GTOs)
 Exchange Functional    Exchange        .... WB97X-D3
 Correlation Functional Correlation     .... WB97X-D3
 Gradients option       PostSCFGGA      .... off
 Hybrid DFT is turned on
   Fraction HF Exchange ScalHFX         ....  0.195728
   Scaling of DF-GGA-X  ScalDFX         ....  0.000000
   Scaling of DF-GGA-C  ScalDFC         ....  1.000000
   Scaling of DF-LDA-C  ScalLDAC        ....  1.000000
   Perturbative correction              ....  0.000000
   Density functional embedding theory  .... OFF
 Long-range corrected/Screened/Range-Separated Hybrid DFT is turned on
   Amount of maximum screened exact exchange              ....  0.804272
   Range separation parameter mu (erf(mu*r12)/r12)        ....  0.250000


General Settings:
 Integral files         IntName         .... 023440332
 Hartree-Fock type      HFTyp           .... RHF
 Total Charge           Charge          ....    0
 Multiplicity           Mult            ....    1
 Number of Electrons    NEL             ....  128
 Basis Dimension        Dim             ....  344
 Nuclear Repulsion      ENuc            ....   1284.9194554027 Eh

Convergence Acceleration:
 DIIS                   CNVDIIS         .... on
   Start iteration      DIISMaxIt       ....    12
   Startup error        DIISStart       ....  0.200000
   # of expansion vecs  DIISMaxEq       ....     5
   Bias factor          DIISBfac        ....   1.050
   Max. coefficient     DIISMaxC        ....  10.000
 Newton-Raphson         CNVNR           .... off
 SOSCF                  CNVSOSCF        .... on
   Start iteration      SOSCFMaxIt      ....   150
   Startup grad/error   SOSCFStart      ....  0.003300
 Level Shifting         CNVShift        .... on
   Level shift para.    LevelShift      ....    0.2500
   Turn off err/grad.   ShiftErr        ....    0.0010
 Zerner damping         CNVZerner       .... off
 Static damping         CNVDamp         .... on
   Fraction old density DampFac         ....    0.7000
   Max. Damping (<1)    DampMax         ....    0.9800
   Min. Damping (>=0)   DampMin         ....    0.0000
   Turn off err/grad.   DampErr         ....    0.1000
 Fernandez-Rico         CNVRico         .... off

SCF Procedure:
 Maximum # iterations   MaxIter         ....   125
 SCF integral mode      SCFMode         .... Direct
   Integral package                     .... LIBINT
 Reset frequency        DirectResetFreq ....    20
 Integral Threshold     Thresh          ....  2.500e-11 Eh
 Primitive CutOff       TCut            ....  2.500e-12 Eh

Convergence Tolerance:
 Convergence Check Mode ConvCheckMode   .... Total+1el-Energy
 Convergence forced     ConvForced      .... 0
 Energy Change          TolE            ....  1.000e-08 Eh
 1-El. energy change                    ....  1.000e-05 Eh
 Orbital Gradient       TolG            ....  1.000e-05
 Orbital Rotation angle TolX            ....  1.000e-05
 DIIS Error             TolErr          ....  5.000e-07


Diagonalization of the overlap matrix:
Smallest eigenvalue                        ... 9.999e-04
Time for diagonalization                   ...    0.120 sec
Threshold for overlap eigenvalues          ... 1.000e-08
Number of eigenvalues below threshold      ... 0
Time for construction of square roots      ...    0.008 sec
Total time needed                          ...    0.129 sec

-------------------
DFT GRID GENERATION
-------------------

General Integration Accuracy     IntAcc      ...  4.340
Radial Grid Type                 RadialGrid  ... Gauss-Chebyshev
Angular Grid (max. acc.)         AngularGrid ... Lebedev-110
Angular grid pruning method      GridPruning ... 3 (G Style)
Weight generation scheme         WeightScheme... Becke
Basis function cutoff            BFCut       ...    1.0000e-11
Integration weight cutoff        WCut        ...    1.0000e-14
Grids for H and He will be reduced by one unit

# of grid points (after initial pruning)     ...  45792 (   0.0 sec)
# of grid points (after weights+screening)   ...  40438 (   0.4 sec)
nearest neighbour list constructed           ...    0.0 sec
Grid point re-assignment to atoms done       ...    0.0 sec
Grid point division into batches done        ...    0.0 sec
Reduced shell lists constructed in    0.4 sec

Total number of grid points                  ...    40438
Total number of batches                      ...      649
Average number of points per batch           ...       62
Average number of grid points per atom       ...     1011
Average number of shells per batch           ...    96.04 (57.17%)
Average number of basis functions per batch  ...   181.25 (52.69%)
Average number of large shells per batch     ...    64.83 (67.50%)
Average number of large basis fcns per batch ...   121.40 (66.98%)
Maximum spatial batch extension              ...  23.24, 18.58, 21.45 au
Average spatial batch extension              ...   3.19,  3.23,  3.34 au

Time for grid setup =    0.869 sec

------------------------------
INITIAL GUESS: MODEL POTENTIAL
------------------------------
Loading Hartree-Fock densities                     ... done
Calculating cut-offs                               ... done
Setting up the integral package                    ... done
Initializing the effective Hamiltonian             ... done
Starting the Coulomb interaction                   ... done (   0.7 sec)
Reading the grid                                   ... done
Mapping shells                                     ... done
Starting the XC term evaluation                    ... done (   0.7 sec)
  promolecular density results
     # of electrons  =    127.975026525
     EX              =   -101.133614035
     EC              =     -4.279268428
     EX+EC           =   -105.412882463
Transforming the Hamiltonian                       ... done (   0.0 sec)
Diagonalizing the Hamiltonian                      ... done (   0.0 sec)
Back transforming the eigenvectors                 ... done (   0.0 sec)
Now organizing SCF variables                       ... done
                      ------------------
                      INITIAL GUESS DONE (   2.4 sec)
                      ------------------
--------------
SCF ITERATIONS
--------------
ITER       Energy         Delta-E        Max-DP      RMS-DP      [F,P]     Damp
               ***  Starting incremental Fock matrix formation  ***
  0   -771.4535428304   0.000000000000 0.06728854  0.00116137  0.1542582 0.7000
  1   -771.5809249235  -0.127382093099 0.04528671  0.00084251  0.0936767 0.7000
                               ***Turning on DIIS***
  2   -771.6472861946  -0.066361271061 0.07965120  0.00163270  0.0492495 0.0000
  3   -771.7590719833  -0.111785788656 0.03453053  0.00059012  0.0340269 0.0000
  4   -771.7736601311  -0.014588147869 0.00539371  0.00011258  0.0047402 0.0000
  5   -771.7739928706  -0.000332739479 0.00280050  0.00004816  0.0034663 0.0000
                      *** Initiating the SOSCF procedure ***
                           *** Shutting down DIIS ***
                      *** Re-Reading the Fockian *** 
                      *** Removing any level shift *** 
ITER      Energy       Delta-E        Grad      Rot      Max-DP    RMS-DP
  6   -771.77406553  -0.0000726584  0.000232  0.000232  0.000960  0.000030
               *** Restarting incremental Fock matrix formation ***
  7   -771.77407303  -0.0000074984  0.000049  0.000086  0.000286  0.000007
  8   -771.77407337  -0.0000003442  0.000034  0.000047  0.000144  0.000003
  9   -771.77407351  -0.0000001394  0.000007  0.000010  0.000037  0.000001
 10   -771.77407351  -0.0000000003  0.000006  0.000003  0.000017  0.000000
                  ***Gradient check signals convergence***
              ***Rediagonalizing the Fockian in SOSCF/NRSCF***

               *****************************************************
               *                     SUCCESS                       *
               *           SCF CONVERGED AFTER  11 CYCLES          *
               *****************************************************

Setting up the final grid:

General Integration Accuracy     IntAcc      ...  4.670
Radial Grid Type                 RadialGrid  ... Gauss-Chebyshev
Angular Grid (max. acc.)         AngularGrid ... Lebedev-302
Angular grid pruning method      GridPruning ... 3 (G Style)
Weight generation scheme         WeightScheme... Becke
Basis function cutoff            BFCut       ...    1.0000e-11
Integration weight cutoff        WCut        ...    1.0000e-14
Grids for H and He will be reduced by one unit

# of grid points (after initial pruning)     ... 180848 (   0.1 sec)
# of grid points (after weights+screening)   ... 155963 (   1.5 sec)
nearest neighbour list constructed           ...    0.0 sec
Grid point re-assignment to atoms done       ...    0.0 sec
Grid point division into batches done        ...    0.5 sec
Reduced shell lists constructed in    2.0 sec

Total number of grid points                  ...   155963
Total number of batches                      ...     2460
Average number of points per batch           ...       63
Average number of grid points per atom       ...     3899
Average number of shells per batch           ...    87.90 (52.32%)
Average number of basis functions per batch  ...   164.14 (47.71%)
Average number of large shells per batch     ...    58.00 (65.98%)
Average number of large basis fcns per batch ...   107.58 (65.54%)
Maximum spatial batch extension              ...  20.06, 21.29, 20.38 au
Average spatial batch extension              ...   2.09,  2.12,  2.15 au

Final grid set up in    3.6 sec
Final integration                            ... done (   3.5 sec)
Change in XC energy                          ...    -0.000381426
Integrated number of electrons               ...   127.999727073
Previous integrated no of electrons          ...   127.989507012

----------------
TOTAL SCF ENERGY
----------------

Total Energy       :         -771.77445494 Eh          -21001.05059 eV

Components:
Nuclear Repulsion  :         1284.91945540 Eh           34964.43594 eV
Electronic Energy  :        -2056.69391034 Eh          -55965.48653 eV
One Electron Energy:        -3603.42443874 Eh          -98054.16396 eV
Two Electron Energy:         1546.73052840 Eh           42088.67742 eV

Virial components:
Potential Energy   :        -1535.83901411 Eh          -41792.30425 eV
Kinetic Energy     :          764.06455918 Eh           20791.25366 eV
Virial Ratio       :            2.01009063


DFT components:
N(Alpha)           :       63.999863536583 electrons
N(Beta)            :       63.999863536583 electrons
N(Total)           :      127.999727073166 electrons
E(XC)              :      -74.290042890746 Eh       
DFET-embed. en.    :        0.000000000000 Eh       

---------------
SCF CONVERGENCE
---------------

  Last Energy change         ...   -2.1714e-09  Tolerance :   1.0000e-08
  Last MAX-Density change    ...    3.2790e-06  Tolerance :   1.0000e-07
  Last RMS-Density change    ...    7.3942e-08  Tolerance :   5.0000e-09
  Last Orbital Gradient      ...    6.1287e-07  Tolerance :   1.0000e-05
  Last Orbital Rotation      ...    8.6274e-07  Tolerance :   1.0000e-05

             **** THE GBW FILE WAS UPDATED (023440332.gbw) ****
             **** DENSITY FILE WAS UPDATED (023440332.scfp) ****
             **** ENERGY FILE WAS UPDATED (023440332.en.tmp) ****
             **** THE GBW FILE WAS UPDATED (023440332.gbw) ****
             **** DENSITY FILE WAS UPDATED (023440332.scfp) ****
----------------
ORBITAL ENERGIES
----------------

  NO   OCC          E(Eh)            E(eV) 
   0   2.0000     -19.247869      -523.7611 
   1   2.0000     -19.245676      -523.7015 
   2   2.0000     -19.232431      -523.3411 
   3   2.0000     -19.228274      -523.2279 
   4   2.0000     -10.333715      -281.1947 
   5   2.0000     -10.332360      -281.1578 
   6   2.0000     -10.331579      -281.1365 
   7   2.0000     -10.330664      -281.1117 
   8   2.0000     -10.328774      -281.0602 
   9   2.0000     -10.325400      -280.9684 
  10   2.0000     -10.324847      -280.9534 
  11   2.0000     -10.318806      -280.7890 
  12   2.0000     -10.294670      -280.1322 
  13   2.0000     -10.279534      -279.7203 
  14   2.0000     -10.275783      -279.6183 
  15   2.0000     -10.270991      -279.4879 
  16   2.0000      -1.154780       -31.4232 
  17   2.0000      -1.150763       -31.3139 
  18   2.0000      -1.145288       -31.1649 
  19   2.0000      -1.128222       -30.7005 
  20   2.0000      -0.920644       -25.0520 
  21   2.0000      -0.887311       -24.1450 
  22   2.0000      -0.860823       -23.4242 
  23   2.0000      -0.838927       -22.8284 
  24   2.0000      -0.812521       -22.1098 
  25   2.0000      -0.799178       -21.7467 
  26   2.0000      -0.774059       -21.0632 
  27   2.0000      -0.733663       -19.9640 
  28   2.0000      -0.716092       -19.4859 
  29   2.0000      -0.710365       -19.3300 
  30   2.0000      -0.685796       -18.6615 
  31   2.0000      -0.638364       -17.3708 
  32   2.0000      -0.620373       -16.8812 
  33   2.0000      -0.615787       -16.7564 
  34   2.0000      -0.603513       -16.4224 
  35   2.0000      -0.597291       -16.2531 
  36   2.0000      -0.589849       -16.0506 
  37   2.0000      -0.578462       -15.7408 
  38   2.0000      -0.569554       -15.4983 
  39   2.0000      -0.557647       -15.1743 
  40   2.0000      -0.547849       -14.9077 
  41   2.0000      -0.540756       -14.7147 
  42   2.0000      -0.527486       -14.3536 
  43   2.0000      -0.518510       -14.1094 
  44   2.0000      -0.509334       -13.8597 
  45   2.0000      -0.499152       -13.5826 
  46   2.0000      -0.494902       -13.4670 
  47   2.0000      -0.486820       -13.2470 
  48   2.0000      -0.481608       -13.1052 
  49   2.0000      -0.470749       -12.8097 
  50   2.0000      -0.469662       -12.7802 
  51   2.0000      -0.463777       -12.6200 
  52   2.0000      -0.450304       -12.2534 
  53   2.0000      -0.443985       -12.0814 
  54   2.0000      -0.429041       -11.6748 
  55   2.0000      -0.425277       -11.5724 
  56   2.0000      -0.409439       -11.1414 
  57   2.0000      -0.402171       -10.9436 
  58   2.0000      -0.396885       -10.7998 
  59   2.0000      -0.382529       -10.4092 
  60   2.0000      -0.370513       -10.0822 
  61   2.0000      -0.357494        -9.7279 
  62   2.0000      -0.338973        -9.2239 
  63   2.0000      -0.327140        -8.9019 
  64   0.0000       0.136401         3.7117 
  65   0.0000       0.140034         3.8105 
  66   0.0000       0.151120         4.1122 
  67   0.0000       0.160176         4.3586 
  68   0.0000       0.169469         4.6115 
  69   0.0000       0.177852         4.8396 
  70   0.0000       0.182536         4.9671 
  71   0.0000       0.184621         5.0238 
  72   0.0000       0.195006         5.3064 
  73   0.0000       0.199707         5.4343 
  74   0.0000       0.203187         5.5290 
  75   0.0000       0.212077         5.7709 
  76   0.0000       0.215670         5.8687 
  77   0.0000       0.218382         5.9425 
  78   0.0000       0.223171         6.0728 
  79   0.0000       0.231677         6.3043 
  80   0.0000       0.232874         6.3368 
  81   0.0000       0.237748         6.4694 
  82   0.0000       0.246044         6.6952 
  83   0.0000       0.247515         6.7352 
  84   0.0000       0.252693         6.8761 
  85   0.0000       0.255445         6.9510 
  86   0.0000       0.259963         7.0739 
  87   0.0000       0.261838         7.1250 
  88   0.0000       0.272478         7.4145 
  89   0.0000       0.275090         7.4856 
  90   0.0000       0.286818         7.8047 
  91   0.0000       0.290278         7.8989 
  92   0.0000       0.299251         8.1430 
  93   0.0000       0.312720         8.5095 
  94   0.0000       0.317071         8.6279 
  95   0.0000       0.328648         8.9430 
  96   0.0000       0.336499         9.1566 
  97   0.0000       0.340490         9.2652 
  98   0.0000       0.346602         9.4315 
  99   0.0000       0.355928         9.6853 
 100   0.0000       0.361762         9.8441 
 101   0.0000       0.379287        10.3209 
 102   0.0000       0.393610        10.7107 
 103   0.0000       0.433262        11.7897 
 104   0.0000       0.509056        13.8521 
 105   0.0000       0.514684        14.0053 
 106   0.0000       0.520614        14.1666 
 107   0.0000       0.526793        14.3348 
 108   0.0000       0.529189        14.4000 
 109   0.0000       0.536594        14.6015 
 110   0.0000       0.547966        14.9109 
 111   0.0000       0.558362        15.1938 
 112   0.0000       0.575848        15.6696 
 113   0.0000       0.577134        15.7046 
 114   0.0000       0.589866        16.0511 
 115   0.0000       0.593985        16.1632 
 116   0.0000       0.606859        16.5135 
 117   0.0000       0.609910        16.5965 
 118   0.0000       0.620613        16.8877 
 119   0.0000       0.638912        17.3857 
 120   0.0000       0.651867        17.7382 
 121   0.0000       0.657757        17.8985 
 122   0.0000       0.668901        18.2017 
 123   0.0000       0.678160        18.4537 
 124   0.0000       0.684394        18.6233 
 125   0.0000       0.693511        18.8714 
 126   0.0000       0.697740        18.9865 
 127   0.0000       0.706551        19.2262 
 128   0.0000       0.713666        19.4198 
 129   0.0000       0.723616        19.6906 
 130   0.0000       0.727879        19.8066 
 131   0.0000       0.731213        19.8973 
 132   0.0000       0.735562        20.0157 
 133   0.0000       0.737544        20.0696 
 134   0.0000       0.746864        20.3232 
 135   0.0000       0.748877        20.3780 
 136   0.0000       0.749758        20.4019 
 137   0.0000       0.751820        20.4581 
 138   0.0000       0.755290        20.5525 
 139   0.0000       0.758945        20.6519 
 140   0.0000       0.766996        20.8710 
 141   0.0000       0.771389        20.9906 
 142   0.0000       0.776427        21.1277 
 143   0.0000       0.779611        21.2143 
 144   0.0000       0.783362        21.3164 
 145   0.0000       0.787939        21.4409 
 146   0.0000       0.791280        21.5318 
 147   0.0000       0.797451        21.6997 
 148   0.0000       0.800086        21.7714 
 149   0.0000       0.806808        21.9544 
 150   0.0000       0.809769        22.0349 
 151   0.0000       0.812892        22.1199 
 152   0.0000       0.815915        22.2022 
 153   0.0000       0.826165        22.4811 
 154   0.0000       0.830400        22.5963 
 155   0.0000       0.836845        22.7717 
 156   0.0000       0.861912        23.4538 
 157   0.0000       0.866088        23.5675 
 158   0.0000       0.871499        23.7147 
 159   0.0000       0.883141        24.0315 
 160   0.0000       0.889524        24.2052 
 161   0.0000       0.921281        25.0693 
 162   0.0000       0.930684        25.3252 
 163   0.0000       0.939125        25.5549 
 164   0.0000       0.955595        26.0031 
 165   0.0000       0.970208        26.4007 
 166   0.0000       1.001148        27.2426 
 167   0.0000       1.028154        27.9775 
 168   0.0000       1.031561        28.0702 
 169   0.0000       1.059536        28.8315 
 170   0.0000       1.061638        28.8886 
 171   0.0000       1.092269        29.7222 
 172   0.0000       1.106868        30.1194 
 173   0.0000       1.136882        30.9361 
 174   0.0000       1.144929        31.1551 
 175   0.0000       1.148061        31.2403 
 176   0.0000       1.179161        32.0866 
 177   0.0000       1.197567        32.5875 
 178   0.0000       1.224458        33.3192 
 179   0.0000       1.233755        33.5722 
 180   0.0000       1.263218        34.3739 
 181   0.0000       1.273627        34.6572 
 182   0.0000       1.292615        35.1739 
 183   0.0000       1.303415        35.4677 
 184   0.0000       1.324754        36.0484 
 185   0.0000       1.346775        36.6476 
 186   0.0000       1.368855        37.2484 
 187   0.0000       1.371363        37.3167 
 188   0.0000       1.393919        37.9305 
 189   0.0000       1.406066        38.2610 
 190   0.0000       1.426674        38.8218 
 191   0.0000       1.430859        38.9356 
 192   0.0000       1.447957        39.4009 
 193   0.0000       1.453257        39.5451 
 194   0.0000       1.470909        40.0255 
 195   0.0000       1.474885        40.1337 
 196   0.0000       1.501793        40.8659 
 197   0.0000       1.507179        41.0124 
 198   0.0000       1.522579        41.4315 
 199   0.0000       1.551401        42.2158 
 200   0.0000       1.567951        42.6661 
 201   0.0000       1.599080        43.5132 
 202   0.0000       1.632545        44.4238 
 203   0.0000       1.635877        44.5145 
 204   0.0000       1.644840        44.7584 
 205   0.0000       1.653781        45.0017 
 206   0.0000       1.667086        45.3637 
 207   0.0000       1.675384        45.5895 
 208   0.0000       1.698407        46.2160 
 209   0.0000       1.706980        46.4493 
 210   0.0000       1.738814        47.3155 
 211   0.0000       1.743785        47.4508 
 212   0.0000       1.755989        47.7829 
 213   0.0000       1.783860        48.5413 
 214   0.0000       1.790117        48.7115 
 215   0.0000       1.799635        48.9706 
 216   0.0000       1.808685        49.2168 
 217   0.0000       1.822448        49.5913 
 218   0.0000       1.824693        49.6524 
 219   0.0000       1.829239        49.7761 
 220   0.0000       1.839769        50.0627 
 221   0.0000       1.850434        50.3529 
 222   0.0000       1.860375        50.6234 
 223   0.0000       1.863845        50.7178 
 224   0.0000       1.873305        50.9752 
 225   0.0000       1.880554        51.1725 
 226   0.0000       1.887113        51.3510 
 227   0.0000       1.892843        51.5069 
 228   0.0000       1.895814        51.5877 
 229   0.0000       1.900800        51.7234 
 230   0.0000       1.908130        51.9229 
 231   0.0000       1.913723        52.0750 
 232   0.0000       1.917473        52.1771 
 233   0.0000       1.920733        52.2658 
 234   0.0000       1.930001        52.5180 
 235   0.0000       1.937081        52.7106 
 236   0.0000       1.949896        53.0594 
 237   0.0000       1.951350        53.0989 
 238   0.0000       1.960801        53.3561 
 239   0.0000       1.970537        53.6210 
 240   0.0000       1.978772        53.8451 
 241   0.0000       1.979807        53.8733 
 242   0.0000       1.984024        53.9880 
 243   0.0000       1.993671        54.2505 
 244   0.0000       1.996707        54.3332 
 245   0.0000       2.014361        54.8135 
 246   0.0000       2.016002        54.8582 
 247   0.0000       2.022421        55.0329 
 248   0.0000       2.038226        55.4629 
 249   0.0000       2.041466        55.5511 
 250   0.0000       2.043074        55.5949 
 251   0.0000       2.046097        55.6771 
 252   0.0000       2.056121        55.9499 
 253   0.0000       2.062589        56.1259 
 254   0.0000       2.067311        56.2544 
 255   0.0000       2.074029        56.4372 
 256   0.0000       2.090281        56.8794 
 257   0.0000       2.094261        56.9877 
 258   0.0000       2.105683        57.2985 
 259   0.0000       2.117808        57.6285 
 260   0.0000       2.119708        57.6802 
 261   0.0000       2.139506        58.2189 
 262   0.0000       2.158041        58.7233 
 263   0.0000       2.181283        59.3557 
 264   0.0000       2.185651        59.4746 
 265   0.0000       2.203969        59.9731 
 266   0.0000       2.228336        60.6361 
 267   0.0000       2.244595        61.0785 
 268   0.0000       2.254524        61.3487 
 269   0.0000       2.273597        61.8677 
 270   0.0000       2.294342        62.4322 
 271   0.0000       2.301041        62.6145 
 272   0.0000       2.307467        62.7894 
 273   0.0000       2.345647        63.8283 
 274   0.0000       2.370922        64.5161 
 275   0.0000       2.378741        64.7288 
 276   0.0000       2.383899        64.8692 
 277   0.0000       2.402125        65.3652 
 278   0.0000       2.413356        65.6708 
 279   0.0000       2.425249        65.9944 
 280   0.0000       2.444278        66.5122 
 281   0.0000       2.476234        67.3818 
 282   0.0000       2.487176        67.6795 
 283   0.0000       2.502194        68.0882 
 284   0.0000       2.527770        68.7841 
 285   0.0000       2.536382        69.0185 
 286   0.0000       2.539923        69.1148 
 287   0.0000       2.572163        69.9921 
 288   0.0000       2.591096        70.5073 
 289   0.0000       2.593523        70.5733 
 290   0.0000       2.601252        70.7837 
 291   0.0000       2.622621        71.3652 
 292   0.0000       2.645393        71.9848 
 293   0.0000       2.647100        72.0312 
 294   0.0000       2.670189        72.6595 
 295   0.0000       2.673452        72.7483 
 296   0.0000       2.680837        72.9493 
 297   0.0000       2.738054        74.5062 
 298   0.0000       2.778684        75.6118 
 299   0.0000       2.783138        75.7330 
 300   0.0000       2.794678        76.0471 
 301   0.0000       2.842289        77.3426 
 302   0.0000       2.847829        77.4934 
 303   0.0000       2.875919        78.2577 
 304   0.0000       2.878858        78.3377 
 305   0.0000       2.893542        78.7373 
 306   0.0000       2.906860        79.0997 
 307   0.0000       2.921025        79.4851 
 308   0.0000       2.935137        79.8691 
 309   0.0000       2.946585        80.1807 
 310   0.0000       2.962649        80.6178 
 311   0.0000       2.974898        80.9511 
 312   0.0000       2.976001        80.9811 
 313   0.0000       2.993537        81.4583 
 314   0.0000       3.003323        81.7246 
 315   0.0000       3.025814        82.3366 
 316   0.0000       3.032111        82.5079 
 317   0.0000       3.053931        83.1017 
 318   0.0000       3.058948        83.2382 
 319   0.0000       3.070858        83.5623 
 320   0.0000       3.081144        83.8422 
 321   0.0000       3.090694        84.1021 
 322   0.0000       3.099292        84.3360 
 323   0.0000       3.115677        84.7819 
 324   0.0000       3.125654        85.0534 
 325   0.0000       3.129923        85.1695 
 326   0.0000       3.136043        85.3361 
 327   0.0000       3.162229        86.0486 
 328   0.0000       3.186098        86.6981 
 329   0.0000       3.208266        87.3013 
 330   0.0000       3.224830        87.7521 
 331   0.0000       3.241429        88.2038 
 332   0.0000       3.244641        88.2912 
 333   0.0000       3.258805        88.6766 
 334   0.0000       3.273109        89.0658 
 335   0.0000       3.283501        89.3486 
 336   0.0000       3.335749        90.7704 
 337   0.0000       3.426154        93.2304 
 338   0.0000       3.456609        94.0591 
 339   0.0000       3.461205        94.1842 
 340   0.0000       3.610887        98.2572 
 341   0.0000       3.624229        98.6203 
 342   0.0000       3.633336        98.8681 
 343   0.0000       3.660870        99.6173 

                    ********************************
                    * MULLIKEN POPULATION ANALYSIS *
                    ********************************

-----------------------
MULLIKEN ATOMIC CHARGES
-----------------------
   0 C :   -0.040978
   1 H :    0.034695
   2 H :    0.035900
   3 H :    0.019413
   4 C :    0.039203
   5 C :   -0.582317
   6 C :    0.296018
   7 O :   -0.410199
   8 C :    0.156117
   9 C :    0.158321
  10 O :   -0.418908
  11 C :    0.189513
  12 C :    0.131781
  13 O :   -0.419043
  14 C :    0.126172
  15 C :   -0.063920
  16 H :    0.034873
  17 H :    0.059645
  18 H :    0.030889
  19 H :    0.013374
  20 H :    0.014689
  21 H :    0.021829
  22 H :    0.013708
  23 H :    0.034520
  24 H :    0.027256
  25 H :    0.028300
  26 H :    0.024800
  27 H :    0.006974
  28 H :    0.038881
  29 H :    0.000287
  30 H :    0.018790
  31 C :    0.356617
  32 H :    0.009179
  33 H :    0.017676
  34 O :   -0.429028
  35 C :    0.339011
  36 H :    0.011835
  37 H :    0.017242
  38 H :    0.041939
  39 H :    0.014940
Sum of atomic charges:    0.0000000

--------------------------------
MULLIKEN REDUCED ORBITAL CHARGES
--------------------------------
  0 C s       :     3.000194  s :     3.000194
      pz      :     0.997748  p :     3.012133
      px      :     1.007925
      py      :     1.006459
      dz2     :     0.002375  d :     0.028650
      dxz     :     0.007661
      dyz     :     0.008896
      dx2y2   :     0.002156
      dxy     :     0.007562
  1 H s       :     0.941124  s :     0.941124
      pz      :     0.007176  p :     0.024180
      px      :     0.007775
      py      :     0.009229
  2 H s       :     0.940351  s :     0.940351
      pz      :     0.006631  p :     0.023749
      px      :     0.009947
      py      :     0.007171
  3 H s       :     0.956793  s :     0.956793
      pz      :     0.008492  p :     0.023793
      px      :     0.006425
      py      :     0.008876
  4 C s       :     2.993203  s :     2.993203
      pz      :     1.016488  p :     2.931988
      px      :     0.956050
      py      :     0.959450
      dz2     :     0.003405  d :     0.035606
      dxz     :     0.009474
      dyz     :     0.009529
      dx2y2   :     0.003534
      dxy     :     0.009664
  5 C s       :     3.333776  s :     3.333776
      pz      :     1.068571  p :     3.199326
      px      :     1.079549
      py      :     1.051207
      dz2     :     0.005804  d :     0.049215
      dxz     :     0.009851
      dyz     :     0.013446
      dx2y2   :     0.008825
      dxy     :     0.011289
  6 C s       :     2.928019  s :     2.928019
      pz      :     0.928775  p :     2.713962
      px      :     0.963607
      py      :     0.821580
      dz2     :     0.008783  d :     0.062000
      dxz     :     0.012737
      dyz     :     0.015077
      dx2y2   :     0.009698
      dxy     :     0.015705
  7 O s       :     3.773219  s :     3.773219
      pz      :     1.591496  p :     4.620997
      px      :     1.603596
      py      :     1.425906
      dz2     :     0.002354  d :     0.015983
      dxz     :     0.003742
      dyz     :     0.005083
      dx2y2   :     0.002391
      dxy     :     0.002412
  8 C s       :     3.015704  s :     3.015704
      pz      :     0.937745  p :     2.765969
      px      :     0.886685
      py      :     0.941538
      dz2     :     0.009323  d :     0.062209
      dxz     :     0.012608
      dyz     :     0.012496
      dx2y2   :     0.014445
      dxy     :     0.013338
  9 C s       :     2.998051  s :     2.998051
      pz      :     0.846606  p :     2.782074
      px      :     0.896868
      py      :     1.038599
      dz2     :     0.012614  d :     0.061554
      dxz     :     0.017716
      dyz     :     0.011591
      dx2y2   :     0.011838
      dxy     :     0.007795
 10 O s       :     3.767263  s :     3.767263
      pz      :     1.308355  p :     4.635598
      px      :     1.674241
      py      :     1.653002
      dz2     :     0.002478  d :     0.016047
      dxz     :     0.004622
      dyz     :     0.003881
      dx2y2   :     0.002648
      dxy     :     0.002418
 11 C s       :     2.986223  s :     2.986223
      pz      :     0.880924  p :     2.762500
      px      :     1.028159
      py      :     0.853417
      dz2     :     0.011996  d :     0.061763
      dxz     :     0.010152
      dyz     :     0.016790
      dx2y2   :     0.015438
      dxy     :     0.007387
 12 C s       :     3.011944  s :     3.011944
      pz      :     0.917270  p :     2.794073
      px      :     0.897002
      py      :     0.979801
      dz2     :     0.011673  d :     0.062201
      dxz     :     0.013729
      dyz     :     0.012357
      dx2y2   :     0.012965
      dxy     :     0.011477
 13 O s       :     3.783580  s :     3.783580
      pz      :     1.678159  p :     4.619612
      px      :     1.604369
      py      :     1.337084
      dz2     :     0.002381  d :     0.015851
      dxz     :     0.003350
      dyz     :     0.002193
      dx2y2   :     0.003978
      dxy     :     0.003949
 14 C s       :     3.023004  s :     3.023004
      pz      :     1.018441  p :     2.786688
      px      :     1.022172
      py      :     0.746075
      dz2     :     0.009050  d :     0.064136
      dxz     :     0.008750
      dyz     :     0.016187
      dx2y2   :     0.019259
      dxy     :     0.010890
 15 C s       :     2.998673  s :     2.998673
      pz      :     1.015816  p :     3.038522
      px      :     1.022932
      py      :     0.999774
      dz2     :     0.005247  d :     0.026725
      dxz     :     0.006381
      dyz     :     0.004992
      dx2y2   :     0.007049
      dxy     :     0.003056
 16 H s       :     0.941569  s :     0.941569
      pz      :     0.011446  p :     0.023558
      px      :     0.004669
      py      :     0.007443
 17 H s       :     0.914590  s :     0.914590
      pz      :     0.007235  p :     0.025765
      px      :     0.013766
      py      :     0.004764
 18 H s       :     0.945057  s :     0.945057
      pz      :     0.005318  p :     0.024054
      px      :     0.005112
      py      :     0.013624
 19 H s       :     0.966011  s :     0.966011
      pz      :     0.006794  p :     0.020615
      px      :     0.011592
      py      :     0.002229
 20 H s       :     0.964541  s :     0.964541
      pz      :     0.011151  p :     0.020769
      px      :     0.004293
      py      :     0.005325
 21 H s       :     0.957646  s :     0.957646
      pz      :     0.005660  p :     0.020525
      px      :     0.011507
      py      :     0.003358
 22 H s       :     0.965310  s :     0.965310
      pz      :     0.011254  p :     0.020981
      px      :     0.003694
      py      :     0.006033
 23 H s       :     0.941971  s :     0.941971
      pz      :     0.003599  p :     0.023509
      px      :     0.016594
      py      :     0.003316
 24 H s       :     0.951814  s :     0.951814
      pz      :     0.009606  p :     0.020930
      px      :     0.007105
      py      :     0.004219
 25 H s       :     0.950630  s :     0.950630
      pz      :     0.007559  p :     0.021070
      px      :     0.005726
      py      :     0.007785
 26 H s       :     0.951682  s :     0.951682
      pz      :     0.004006  p :     0.023518
      px      :     0.003789
      py      :     0.015723
 27 H s       :     0.971435  s :     0.971435
      pz      :     0.012200  p :     0.021591
      px      :     0.005042
      py      :     0.004349
 28 H s       :     0.940586  s :     0.940586
      pz      :     0.007171  p :     0.020533
      px      :     0.003227
      py      :     0.010135
 29 H s       :     0.978718  s :     0.978718
      pz      :     0.010583  p :     0.020995
      px      :     0.006344
      py      :     0.004068
 30 H s       :     0.958734  s :     0.958734
      pz      :     0.004481  p :     0.022477
      px      :     0.010149
      py      :     0.007847
 31 C s       :     2.942592  s :     2.942592
      pz      :     0.919400  p :     2.639165
      px      :     0.985909
      py      :     0.733856
      dz2     :     0.013666  d :     0.061626
      dxz     :     0.008573
      dyz     :     0.014880
      dx2y2   :     0.013648
      dxy     :     0.010859
 32 H s       :     0.969504  s :     0.969504
      pz      :     0.012985  p :     0.021317
      px      :     0.005523
      py      :     0.002809
 33 H s       :     0.958311  s :     0.958311
      pz      :     0.003844  p :     0.024012
      px      :     0.017339
      py      :     0.002829
 34 O s       :     3.809731  s :     3.809731
      pz      :     1.450189  p :     4.601693
      px      :     1.635415
      py      :     1.516090
      dz2     :     0.002226  d :     0.017603
      dxz     :     0.001624
      dyz     :     0.005826
      dx2y2   :     0.003722
      dxy     :     0.004205
 35 C s       :     2.957868  s :     2.957868
      pz      :     0.886498  p :     2.640061
      px      :     0.932773
      py      :     0.820790
      dz2     :     0.016430  d :     0.063059
      dxz     :     0.010267
      dyz     :     0.013533
      dx2y2   :     0.012695
      dxy     :     0.010133
 36 H s       :     0.966383  s :     0.966383
      pz      :     0.013320  p :     0.021781
      px      :     0.004838
      py      :     0.003624
 37 H s       :     0.961170  s :     0.961170
      pz      :     0.003657  p :     0.021588
      px      :     0.014478
      py      :     0.003452
 38 H s       :     0.934996  s :     0.934996
      pz      :     0.006932  p :     0.023065
      px      :     0.007060
      py      :     0.009074
 39 H s       :     0.962438  s :     0.962438
      pz      :     0.007828  p :     0.022622
      px      :     0.007616
      py      :     0.007179


                     *******************************
                     * LOEWDIN POPULATION ANALYSIS *
                     *******************************

----------------------
LOEWDIN ATOMIC CHARGES
----------------------
   0 C :   -0.060776
   1 H :    0.023702
   2 H :    0.028807
   3 H :    0.020410
   4 C :   -0.033110
   5 C :   -0.083341
   6 C :    0.081380
   7 O :   -0.167158
   8 C :    0.054186
   9 C :    0.051965
  10 O :   -0.179556
  11 C :    0.061243
  12 C :    0.053080
  13 O :   -0.172724
  14 C :    0.070604
  15 C :   -0.075757
  16 H :    0.024847
  17 H :    0.031034
  18 H :    0.030783
  19 H :    0.006231
  20 H :    0.007367
  21 H :    0.011735
  22 H :    0.010772
  23 H :    0.013316
  24 H :    0.025449
  25 H :    0.024676
  26 H :    0.008957
  27 H :    0.009505
  28 H :    0.026193
  29 H :    0.002366
  30 H :    0.008228
  31 C :    0.107733
  32 H :    0.007869
  33 H :    0.003781
  34 O :   -0.203332
  35 C :    0.104754
  36 H :    0.006793
  37 H :    0.009686
  38 H :    0.028504
  39 H :    0.019798

-------------------------------
LOEWDIN REDUCED ORBITAL CHARGES
-------------------------------
  0 C s       :     2.825930  s :     2.825930
      pz      :     1.052433  p :     3.161790
      px      :     1.052573
      py      :     1.056784
      dz2     :     0.005188  d :     0.073055
      dxz     :     0.020133
      dyz     :     0.023169
      dx2y2   :     0.004532
      dxy     :     0.020033
  1 H s       :     0.908701  s :     0.908701
      pz      :     0.020529  p :     0.067597
      px      :     0.021629
      py      :     0.025439
  2 H s       :     0.904454  s :     0.904454
      pz      :     0.018975  p :     0.066739
      px      :     0.028074
      py      :     0.019690
  3 H s       :     0.912865  s :     0.912865
      pz      :     0.024345  p :     0.066725
      px      :     0.017592
      py      :     0.024788
  4 C s       :     2.828765  s :     2.828765
      pz      :     1.044856  p :     3.113404
      px      :     1.027762
      py      :     1.040785
      dz2     :     0.007366  d :     0.090941
      dxz     :     0.024972
      dyz     :     0.024801
      dx2y2   :     0.007614
      dxy     :     0.026188
  5 C s       :     2.858016  s :     2.858016
      pz      :     1.040252  p :     3.109697
      px      :     1.042352
      py      :     1.027092
      dz2     :     0.011821  d :     0.115629
      dxz     :     0.023849
      dyz     :     0.033448
      dx2y2   :     0.016888
      dxy     :     0.029622
  6 C s       :     2.837888  s :     2.837888
      pz      :     0.993713  p :     2.934973
      px      :     1.019943
      py      :     0.921317
      dz2     :     0.019944  d :     0.145760
      dxz     :     0.031769
      dyz     :     0.036084
      dx2y2   :     0.020369
      dxy     :     0.037594
  7 O s       :     3.452713  s :     3.452713
      pz      :     1.627841  p :     4.685369
      px      :     1.602448
      py      :     1.455080
      dz2     :     0.003560  d :     0.029077
      dxz     :     0.006235
      dyz     :     0.009075
      dx2y2   :     0.004622
      dxy     :     0.005585
  8 C s       :     2.850544  s :     2.850544
      pz      :     1.013688  p :     2.952321
      px      :     0.967636
      py      :     0.970997
      dz2     :     0.022530  d :     0.142948
      dxz     :     0.028289
      dyz     :     0.030038
      dx2y2   :     0.032825
[...]
 36 H s       :     0.962758  s :     0.962758
      pz      :     0.013238  p :     0.021291
      px      :     0.004603
      py      :     0.003450
 37 H s       :     0.959412  s :     0.959412
      pz      :     0.003556  p :     0.021110
      px      :     0.014209
      py      :     0.003344
 38 H s       :     0.933858  s :     0.933858
      pz      :     0.007360  p :     0.022468
      px      :     0.006688
      py      :     0.008420
 39 H s       :     0.960108  s :     0.960108
      pz      :     0.007352  p :     0.022164
      px      :     0.007728
      py      :     0.007084


                     *******************************
                     * LOEWDIN POPULATION ANALYSIS *
                     *******************************

----------------------
LOEWDIN ATOMIC CHARGES
----------------------
   0 C :   -0.066601
   1 H :    0.026276
   2 H :    0.030534
   3 H :    0.022598
   4 C :   -0.036961
   5 C :   -0.085572
   6 C :    0.075866
   7 O :   -0.163380
   8 C :    0.050862
   9 C :    0.048369
  10 O :   -0.175394
  11 C :    0.057252
  12 C :    0.048586
  13 O :   -0.166649
  14 C :    0.066493
  15 C :   -0.082010
  16 H :    0.026383
  17 H :    0.033414
  18 H :    0.032688
  19 H :    0.006513
  20 H :    0.007739
  21 H :    0.011745
  22 H :    0.011693
  23 H :    0.013496
  24 H :    0.027569
  25 H :    0.026286
  26 H :    0.009733
  27 H :    0.011045
  28 H :    0.026585
  29 H :    0.002777
  30 H :    0.009110
  31 C :    0.105640
  32 H :    0.009452
  33 H :    0.006875
  34 O :   -0.201090
  35 C :    0.101735
  36 H :    0.007797
  37 H :    0.010337
  38 H :    0.030708
  39 H :    0.021500

-------------------------------
LOEWDIN REDUCED ORBITAL CHARGES
-------------------------------
  0 C s       :     2.836269  s :     2.836269
      pz      :     1.051662  p :     3.159004
      px      :     1.052472
      py      :     1.054871
      dz2     :     0.005640  d :     0.071328
      dxz     :     0.019317
      dyz     :     0.022261
      dx2y2   :     0.003903
      dxy     :     0.020207
  1 H s       :     0.908406  s :     0.908406
      pz      :     0.019045  p :     0.065318
      px      :     0.021448
      py      :     0.024824
  2 H s       :     0.904764  s :     0.904764
      pz      :     0.017811  p :     0.064701
      px      :     0.027416
      py      :     0.019474
  3 H s       :     0.913093  s :     0.913093
      pz      :     0.024782  p :     0.064309
      px      :     0.017142
      py      :     0.022386
  4 C s       :     2.834110  s :     2.834110
      pz      :     1.043967  p :     3.112831
      px      :     1.029579
      py      :     1.039285
      dz2     :     0.007404  d :     0.090020
      dxz     :     0.024078
      dyz     :     0.025128
      dx2y2   :     0.007408
      dxy     :     0.026002
  5 C s       :     2.858070  s :     2.858070
      pz      :     1.040956  p :     3.111908
      px      :     1.043940
      py      :     1.027011
      dz2     :     0.012029  d :     0.115594
      dxz     :     0.023865
      dyz     :     0.033530
      dx2y2   :     0.017148
      dxy     :     0.029021
  6 C s       :     2.838838  s :     2.838838
      pz      :     0.999487  p :     2.936565
      px      :     1.018771
      py      :     0.918306
      dz2     :     0.020563  d :     0.148732
      dxz     :     0.032258
      dyz     :     0.035400
      dx2y2   :     0.021887
      dxy     :     0.038624
  7 O s       :     3.447901  s :     3.447901
      pz      :     1.629998  p :     4.686010
      px      :     1.606446
      py      :     1.449566
      dz2     :     0.003636  d :     0.029469
      dxz     :     0.006320
      dyz     :     0.009145
      dx2y2   :     0.004792
      dxy     :     0.005576
  8 C s       :     2.851063  s :     2.851063
      pz      :     1.003531  p :     2.953692
      px      :     0.972112
      py      :     0.978049
      dz2     :     0.024607  d :     0.144383
      dxz     :     0.028706
      dyz     :     0.027814
      dx2y2   :     0.034576
      dxy     :     0.028680
  9 C s       :     2.844965  s :     2.844965
      pz      :     0.895057  p :     2.962242
      px      :     0.986499
      py      :     1.080686
      dz2     :     0.028724  d :     0.144424
      dxz     :     0.039086
      dyz     :     0.028636
      dx2y2   :     0.029108
      dxy     :     0.018870
 10 O s       :     3.449212  s :     3.449212
      pz      :     1.343448  p :     4.697204
      px      :     1.687807
      py      :     1.665949
      dz2     :     0.005554  d :     0.028979
      dxz     :     0.008797
      dyz     :     0.007769
      dx2y2   :     0.003921
      dxy     :     0.002937
 11 C s       :     2.840978  s :     2.840978
      pz      :     0.922472  p :     2.956722
      px      :     1.076192
      py      :     0.958058
      dz2     :     0.028201  d :     0.145048
      dxz     :     0.024772
      dyz     :     0.036808
      dx2y2   :     0.038819
      dxy     :     0.016448
 12 C s       :     2.851775  s :     2.851775
      pz      :     0.966537  p :     2.954566
      px      :     0.972253
      py      :     1.015776
      dz2     :     0.031673  d :     0.145073
      dxz     :     0.029030
      dyz     :     0.028553
      dx2y2   :     0.033111
      dxy     :     0.022706
 13 O s       :     3.453613  s :     3.453613
      pz      :     1.656892  p :     4.683617
      px      :     1.649459
      py      :     1.377265
      dz2     :     0.004324  d :     0.029420
      dxz     :     0.005714
      dyz     :     0.005028
      dx2y2   :     0.007536
      dxy     :     0.006818
 14 C s       :     2.844068  s :     2.844068
      pz      :     1.054769  p :     2.942967
      px      :     1.051988
      py      :     0.836210
      dz2     :     0.019207  d :     0.146472
      dxz     :     0.021444
      dyz     :     0.038018
      dx2y2   :     0.044259
      dxy     :     0.023545
 15 C s       :     2.841630  s :     2.841630
      pz      :     1.052419  p :     3.171482
      px      :     1.062050
      py      :     1.057014
      dz2     :     0.012282  d :     0.068897
      dxz     :     0.016850
      dyz     :     0.014048
      dx2y2   :     0.018554
      dxy     :     0.007163
 16 H s       :     0.908590  s :     0.908590
      pz      :     0.031968  p :     0.065027
      px      :     0.013090
      py      :     0.019969
 17 H s       :     0.895281  s :     0.895281
      pz      :     0.019043  p :     0.071305
      px      :     0.040193
      py      :     0.012069
 18 H s       :     0.902191  s :     0.902191
      pz      :     0.014169  p :     0.065120
      px      :     0.014168
      py      :     0.036783
 19 H s       :     0.930566  s :     0.930566
      pz      :     0.018101  p :     0.062922
      px      :     0.036430
      py      :     0.008392
 20 H s       :     0.929316  s :     0.929316
      pz      :     0.032219  p :     0.062944
      px      :     0.012085
      py      :     0.018640
 21 H s       :     0.923886  s :     0.923886
      pz      :     0.014090  p :     0.064370
      px      :     0.038303
      py      :     0.011977
 22 H s       :     0.924525  s :     0.924525
      pz      :     0.033935  p :     0.063781
      px      :     0.010622
      py      :     0.019224
 23 H s       :     0.917212  s :     0.917212
      pz      :     0.012731  p :     0.069292
      px      :     0.045686
      py      :     0.010875
 24 H s       :     0.910006  s :     0.910006
      pz      :     0.028555  p :     0.062425
      px      :     0.020223
      py      :     0.013647
 25 H s       :     0.910942  s :     0.910942
      pz      :     0.023186  p :     0.062773
      px      :     0.017704
      py      :     0.021882
 26 H s       :     0.920787  s :     0.920787
      pz      :     0.014855  p :     0.069479
      px      :     0.012176
      py      :     0.042448
 27 H s       :     0.924993  s :     0.924993
      pz      :     0.035867  p :     0.063961
      px      :     0.015321
      py      :     0.012773
 28 H s       :     0.910074  s :     0.910074
      pz      :     0.018252  p :     0.063341
      px      :     0.011172
      py      :     0.033917
 29 H s       :     0.932917  s :     0.932917
      pz      :     0.032814  p :     0.064306
      px      :     0.019420
      py      :     0.012072
 30 H s       :     0.922959  s :     0.922959
      pz      :     0.014042  p :     0.067932
      px      :     0.028675
      py      :     0.025215
 31 C s       :     2.854523  s :     2.854523
      pz      :     0.998129  p :     2.900579
      px      :     1.057191
      py      :     0.845259
      dz2     :     0.032145  d :     0.139258
      dxz     :     0.017911
      dyz     :     0.035110
      dx2y2   :     0.031539
      dxy     :     0.022553
 32 H s       :     0.925554  s :     0.925554
      pz      :     0.039088  p :     0.064994
      px      :     0.016716
      py      :     0.009190
 33 H s       :     0.923463  s :     0.923463
      pz      :     0.011899  p :     0.069662
      px      :     0.048366
      py      :     0.009397
 34 O s       :     3.499847  s :     3.499847
      pz      :     1.475543  p :     4.671672
      px      :     1.645261
      py      :     1.550868
      dz2     :     0.003646  d :     0.029571
      dxz     :     0.003363
      dyz     :     0.010248
      dx2y2   :     0.005720
      dxy     :     0.006595
 35 C s       :     2.852899  s :     2.852899
      pz      :     0.970482  p :     2.903294
      px      :     1.008483
      py      :     0.924329
      dz2     :     0.039346  d :     0.142073
      dxz     :     0.019589
      dyz     :     0.029582
      dx2y2   :     0.031294
      dxy     :     0.022263
 36 H s       :     0.927392  s :     0.927392
      pz      :     0.039756  p :     0.064811
      px      :     0.013627
      py      :     0.011428
 37 H s       :     0.924736  s :     0.924736
      pz      :     0.011176  p :     0.064927
      px      :     0.042389
      py      :     0.011361
 38 H s       :     0.902660  s :     0.902660
      pz      :     0.022655  p :     0.066632
      px      :     0.019272
      py      :     0.024705
 39 H s       :     0.913494  s :     0.913494
      pz      :     0.021958  p :     0.065006
      px      :     0.022553
      py      :     0.020496


                      *****************************
                      * MAYER POPULATION ANALYSIS *
                      *****************************

  NA   - Mulliken gross atomic population
  ZA   - Total nuclear charge
  QA   - Mulliken gross atomic charge
  VA   - Mayer's total valence
  BVA  - Mayer's bonded valence
  FA   - Mayer's free valence

  ATOM       NA         ZA         QA         VA         BVA        FA
  0 C      6.0589     6.0000    -0.0589     4.0119     4.0119     0.0000
  1 H      0.9595     1.0000     0.0405     0.9917     0.9917    -0.0000
  2 H      0.9606     1.0000     0.0394     0.9868     0.9868    -0.0000
  3 H      0.9748     1.0000     0.0252     0.9897     0.9897     0.0000
  4 C      5.9647     6.0000     0.0353     3.9768     3.9768    -0.0000
  5 C      6.5648     6.0000    -0.5648     4.1505     4.1505     0.0000
  6 C      5.7138     6.0000     0.2862     3.8743     3.8743     0.0000
  7 O      8.4037     8.0000    -0.4037     2.0799     2.0799    -0.0000
  8 C      5.8502     6.0000     0.1498     3.9944     3.9944     0.0000
  9 C      5.8406     6.0000     0.1594     3.9919     3.9919    -0.0000
 10 O      8.4153     8.0000    -0.4153     2.0608     2.0608    -0.0000
 11 C      5.8113     6.0000     0.1887     4.0070     4.0070     0.0000
 12 C      5.8729     6.0000     0.1271     3.9655     3.9655    -0.0000
 13 O      8.4128     8.0000    -0.4128     2.0683     2.0683     0.0000
 14 C      5.8714     6.0000     0.1286     4.0246     4.0246    -0.0000
 15 C      6.0806     6.0000    -0.0806     3.9805     3.9805    -0.0000
 16 H      0.9623     1.0000     0.0377     0.9902     0.9902     0.0000
 17 H      0.9360     1.0000     0.0640     1.0501     1.0501     0.0000
 18 H      0.9653     1.0000     0.0347     0.9889     0.9889     0.0000
 19 H      0.9864     1.0000     0.0136     0.9774     0.9774     0.0000
 20 H      0.9857     1.0000     0.0143     0.9774     0.9774    -0.0000
 21 H      0.9791     1.0000     0.0209     0.9914     0.9914    -0.0000
 22 H      0.9858     1.0000     0.0142     0.9833     0.9833    -0.0000
 23 H      0.9665     1.0000     0.0335     1.0246     1.0246    -0.0000
 24 H      0.9717     1.0000     0.0283     0.9857     0.9857    -0.0000
 25 H      0.9717     1.0000     0.0283     0.9860     0.9860     0.0000
 26 H      0.9738     1.0000     0.0262     1.0162     1.0162     0.0000
 27 H      0.9929     1.0000     0.0071     0.9888     0.9888     0.0000
 28 H      0.9607     1.0000     0.0393     0.9939     0.9939    -0.0000
 29 H      0.9989     1.0000     0.0011     0.9898     0.9898     0.0000
 30 H      0.9806     1.0000     0.0194     1.0145     1.0145     0.0000
 31 C      5.6594     6.0000     0.3406     3.8157     3.8157     0.0000
 32 H      0.9869     1.0000     0.0131     0.9860     0.9860    -0.0000
 33 H      0.9769     1.0000     0.0231     1.0209     1.0209     0.0000
 34 O      8.4226     8.0000    -0.4226     2.1005     2.1005    -0.0000
 35 C      5.6779     6.0000     0.3221     3.8335     3.8335     0.0000
 36 H      0.9840     1.0000     0.0160     0.9786     0.9786    -0.0000
 37 H      0.9805     1.0000     0.0195     0.9840     0.9840     0.0000
 38 H      0.9563     1.0000     0.0437     0.9954     0.9954    -0.0000
 39 H      0.9823     1.0000     0.0177     0.9849     0.9849    -0.0000

  Mayer bond orders larger than 0.100000
B(  0-C ,  1-H ) :   0.9699 B(  0-C ,  2-H ) :   0.9718 B(  0-C ,  3-H ) :   0.9730 
B(  0-C ,  4-C ) :   1.0866 B(  4-C ,  5-C ) :   0.9982 B(  4-C , 38-H ) :   0.9428 
B(  4-C , 39-H ) :   0.9457 B(  5-C ,  6-C ) :   0.9851 B(  5-C , 31-C ) :   1.0303 
B(  5-C , 35-C ) :   1.0200 B(  6-C ,  7-O ) :   0.9928 B(  6-C , 29-H ) :   0.9316 
B(  6-C , 30-H ) :   0.9306 B(  7-O ,  8-C ) :   0.9767 B(  8-C ,  9-C ) :   1.0651 
B(  8-C , 27-H ) :   0.9414 B(  8-C , 28-H ) :   0.9472 B(  9-C , 10-O ) :   0.9910 
B(  9-C , 25-H ) :   0.9492 B(  9-C , 26-H ) :   0.9380 B( 10-O , 11-C ) :   0.9975 
B( 11-C , 12-C ) :   1.0685 B( 11-C , 23-H ) :   0.9432 B( 11-C , 24-H ) :   0.9481 
B( 12-C , 13-O ) :   0.9612 B( 12-C , 21-H ) :   0.9347 B( 12-C , 22-H ) :   0.9428 
B( 13-O , 14-C ) :   0.9582 B( 14-C , 15-C ) :   1.0954 B( 14-C , 19-H ) :   0.9515 
B( 14-C , 20-H ) :   0.9492 B( 15-C , 16-H ) :   0.9686 B( 15-C , 17-H ) :   0.9521 
B( 15-C , 18-H ) :   0.9623 B( 31-C , 32-H ) :   0.9409 B( 31-C , 33-H ) :   0.9381 
B( 31-C , 34-O ) :   0.9816 B( 34-O , 35-C ) :   0.9945 B( 35-C , 36-H ) :   0.9475 
B( 35-C , 37-H ) :   0.9415 

-------
TIMINGS
-------

Total SCF time: 0 days 0 hours 3 min 42 sec 

Total time                  ....     222.894 sec
Sum of individual times     ....     222.604 sec  ( 99.9%)

Fock matrix formation       ....     218.102 sec  ( 97.8%)
  XC integration            ....       7.614 sec  (  3.5% of F)
    Basis function eval.    ....       2.376 sec  ( 31.2% of XC)
    Density eval.           ....       1.658 sec  ( 21.8% of XC)
    XC-Functional eval.     ....       1.505 sec  ( 19.8% of XC)
    XC-Potential eval.      ....       1.873 sec  ( 24.6% of XC)
Diagonalization             ....       0.018 sec  (  0.0%)
Density matrix formation    ....       0.015 sec  (  0.0%)
Population analysis         ....       0.017 sec  (  0.0%)
Initial guess               ....       0.019 sec  (  0.0%)
Orbital Transformation      ....       0.000 sec  (  0.0%)
Orbital Orthonormalization  ....       0.014 sec  (  0.0%)
DIIS solution               ....       0.006 sec  (  0.0%)
SOSCF solution              ....       0.060 sec  (  0.0%)
Grid generation             ....       4.367 sec  (  2.0%)


-------------------------------------------------------------------------------
                          DFT DISPERSION CORRECTION                            
                                                                               
                              DFTD3 V3.1  Rev 1                                
                              USING zero damping                               
-------------------------------------------------------------------------------
The omegaB97X-D3 functional is recognized. Fit by Chai et al.
Active option DFTDOPT                   ...         3   

molecular C6(AA) [au] = 11218.139065 


            DFT-D V3
 parameters
 s6 scaling factor         :     1.0000 
 rs6 scaling factor        :     1.2810 
 s8 scaling factor         :     1.0000 
 rs8 scaling factor        :     1.0940 
 Damping factor alpha6     :    14.0000 
 Damping factor alpha8     :    16.0000 
 ad hoc parameters k1-k3   :    16.0000     1.3333    -4.0000 

 Edisp/kcal,au: -13.094745550741  -0.020867803109 
 E6   /kcal   :  -6.108974007 
 E8   /kcal   :  -6.985771544 
 % E8         :  53.347898335 

-------------------------   ----------------
Dispersion correction           -0.020867803
-------------------------   ----------------


-------------------------   --------------------
FINAL SINGLE POINT ENERGY      -771.798506006644
-------------------------   --------------------

                                *** OPTIMIZATION RUN DONE ***

                            ***************************************
                            *     ORCA property calculations      *
                            ***************************************

                                    ---------------------
                                    Active property flags
                                    ---------------------
   (+) Dipole Moment


------------------------------------------------------------------------------
                       ORCA ELECTRIC PROPERTIES CALCULATION
------------------------------------------------------------------------------

Dipole Moment Calculation                       ... on
Quadrupole Moment Calculation                   ... off
Polarizability Calculation                      ... off
GBWName                                         ... 023440332.gbw
Electron density file                           ... 023440332.scfp
The origin for moment calculation is the CENTER OF MASS  = ( 0.002273,  0.008773 -0.000670)

-------------
DIPOLE MOMENT
-------------
                                X             Y             Z
Electronic contribution:      3.82198      -1.85685      -3.05426
Nuclear contribution   :     -3.78845       1.79504       3.38846
                        -----------------------------------------
Total Dipole Moment    :      0.03353      -0.06181       0.33420
                        -----------------------------------------
Magnitude (a.u.)       :      0.34152
Magnitude (Debye)      :      0.86807



--------------------
Rotational spectrum 
--------------------
 
Rotational constants in cm-1:     0.020384     0.013457     0.009436 
Rotational constants in MHz :   611.087279   403.423513   282.890296 

 Dipole components along the rotational axes: 
x,y,z [a.u.] :    -0.034786    -0.064728     0.333518 
x,y,z [Debye]:    -0.088420    -0.164525     0.847735 

 

Timings for individual modules:

Sum of individual times         ...     5587.596 sec (=  93.127 min)
GTO integral calculation        ...        4.105 sec (=   0.068 min)   0.1 %
SCF iterations                  ...     3667.816 sec (=  61.130 min)  65.6 %
SCF Gradient evaluation         ...     1912.951 sec (=  31.883 min)  34.2 %
Geometry relaxation             ...        2.724 sec (=   0.045 min)   0.0 %
                             ****ORCA TERMINATED NORMALLY****
TOTAL RUN TIME: 0 days 1 hours 33 minutes 10 seconds 607 msec
