
                                 *****************
                                 * O   R   C   A *
                                 *****************

           --- An Ab Initio, DFT and Semiempirical electronic structure package ---

                  #######################################################
                  #                        -***-                        #
                  #          Department of theory and spectroscopy      #
                  #               Directorship: Frank Neese             #
                  #        Max Planck Institute fuer Kohlenforschung    #
                  #                Kaiser Wilhelm Platz 1               #
                  #                 D-45470 Muelheim/Ruhr               #
                  #                      Germany                        #
                  #                                                     #
                  #                  All rights reserved                #
                  #                        -***-                        #
                  #######################################################


                         Program Version 4.2.0 -  RELEASE  -


 With contributions from (in alphabetic order):
   Daniel Aravena         : Magnetic Suceptibility
   Michael Atanasov       : Ab Initio Ligand Field Theory (pilot matlab implementation)
   Alexander A. Auer      : GIAO ZORA, VPT2
   Ute Becker             : Parallelization
   Giovanni Bistoni       : ED, misc. LED, open-shell LED, HFLED
   Martin Brehm           : Molecular dynamics
   Dmytro Bykov           : SCF Hessian
   Vijay G. Chilkuri      : MRCI spin determinant printing, contributions to CSF-ICE
   Dipayan Datta          : RHF DLPNO-CCSD density
   Achintya Kumar Dutta   : EOM-CC, STEOM-CC
   Dmitry Ganyushin       : Spin-Orbit,Spin-Spin,Magnetic field MRCI
   Miquel Garcia          : C-PCM Hessian, Gaussian charge scheme
   Yang Guo               : DLPNO-NEVPT2, CIM, IAO-localization
   Andreas Hansen         : Spin unrestricted coupled pair/coupled cluster methods
   Benjamin Helmich-Paris : CASSCF linear response (MC-RPA)
   Lee Huntington         : MR-EOM, pCC
   Robert Izsak           : Overlap fitted RIJCOSX, COSX-SCS-MP3, EOM
   Christian Kollmar      : KDIIS, OOCD, Brueckner-CCSD(T), CCSD density
   Simone Kossmann        : Meta GGA functionals, TD-DFT gradient, OOMP2, MP2 Hessian
   Martin Krupicka        : AUTO-CI
   Lucas Lang             : DCDCAS
   Dagmar Lenk            : GEPOL surface, SMD
   Dimitrios Liakos       : Extrapolation schemes; Compound Job, initial MDCI parallelization
   Dimitrios Manganas     : Further ROCIS development; embedding schemes
   Dimitrios Pantazis     : SARC Basis sets
   Taras Petrenko         : DFT Hessian,TD-DFT gradient, ASA, ECA, R-Raman, ABS, FL, XAS/XES, NRVS
   Peter Pinski           : DLPNO-MP2, DLPNO-MP2 Gradient
   Christoph Reimann      : Effective Core Potentials
   Marius Retegan         : Local ZFS, SOC
   Christoph Riplinger    : Optimizer, TS searches, QM/MM, DLPNO-CCSD(T), (RO)-DLPNO pert. Triples
   Tobias Risthaus        : Range-separated hybrids, TD-DFT gradient, RPA, STAB
   Michael Roemelt        : Original ROCIS implementation
   Masaaki Saitow         : Open-shell DLPNO-CCSD energy and density
   Barbara Sandhoefer     : DKH picture change effects
   Avijit Sen             : IP-ROCIS
   Kantharuban Sivalingam : CASSCF convergence, NEVPT2, FIC-MRCI
   Bernardo de Souza      : ESD, SOC TD-DFT
   Georgi Stoychev        : AutoAux, RI-MP2 NMR
   Willem Van den Heuvel  : Paramagnetic NMR
   Boris Wezisla          : Elementary symmetry handling
   Frank Wennmohs         : Technical directorship


 We gratefully acknowledge several colleagues who have allowed us to
 interface, adapt or use parts of their codes:
   Stefan Grimme, W. Hujo, H. Kruse,             : VdW corrections, initial TS optimization,
                  C. Bannwarth                     DFT functionals, gCP, sTDA/sTD-DF
   Ed Valeev, F. Pavosevic, A. Kumar             : LibInt (2-el integral package), F12 methods
   Garnet Chan, S. Sharma, J. Yang, R. Olivares  : DMRG
   Ulf Ekstrom                                   : XCFun DFT Library
   Mihaly Kallay                                 : mrcc  (arbitrary order and MRCC methods)
   Andreas Klamt, Michael Diedenhofen            : otool_cosmo (COSMO solvation model)
   Jiri Pittner, Ondrej Demel                    : Mk-CCSD
   Frank Weinhold                                : gennbo (NPA and NBO analysis)
   Christopher J. Cramer and Donald G. Truhlar   : smd solvation model
   Lars Goerigk                                  : TD-DFT with DH, B97 family of functionals
   V. Asgeirsson, H. Jonsson                     : NEB implementation
   FAccTs GmbH                                   : IRC, NEB, NEB-TS, Multilevel, MM, QM/MM, CI optimization
   S Lehtola, MJT Oliveira, MAL Marques          : LibXC Library


 Your calculation uses the libint2 library for the computation of 2-el integrals
 For citations please refer to: http://libint.valeyev.net

 Your ORCA version has been built with support for libXC version: 4.2.3
 For citations please refer to: https://tddft.org/programs/libxc/

 This ORCA versions uses:
   CBLAS   interface :  Fast vector & matrix operations
   LAPACKE interface :  Fast linear algebra routines
   SCALAPACK package :  Parallel linear algebra routines


Your calculation utilizes the atom-pairwise dispersion correction
with the zero-damping scheme (D30)
Cite in your paper:
S.Grimme, J.Antony, S.Ehrlich and H.Krieg, J.Chem.Phys., 132, (2010), 154104 
   

XCFun DFT library Copyright 2009-2010 Ulf Ekstrom and contributors.
See http://admol.org/xcfun for more information. This is free soft-
ware; see the source code for copying conditions. There is ABSOLUTELY
NO WARRANTY; not even for MERCHANTABILITY or FITNESS FOR A PARTICULAR
PURPOSE. For details see the documentation. Scientific users of this 
library should cite U. Ekstrom, L. Visscher, R. Bast, A. J. Thorvald-
sen and K. Ruud; J.Chem.Theor.Comp. 2010, DOI: 10.1021/ct100117s
XCFun Version 0.99 
----- Orbital basis set information -----
Your calculation utilizes the basis: def2-SVP
   F. Weigend and R. Ahlrichs, Phys. Chem. Chem. Phys. 7, 3297 (2005).

================================================================================
                                        WARNINGS
                       Please study these warnings very carefully!
================================================================================


WARNING: Geometry Optimization
  ===> : Switching off AutoStart
         For restart on a previous wavefunction, please use MOREAD

INFO   : the flag for use of LIBINT has been found!

================================================================================
                                       INPUT FILE
================================================================================
NAME = 023514586.inp
|  1> # ORCA input file
|  2> # -47.00816256
|  3> ! wB97X-D3 def2-SVP Opt
|  4> * xyz 0 1
|  5>    C        2.05690         1.64620         1.27240
|  6>    H        3.08590         1.47580         1.58030
|  7>    H        1.84360         2.71050         1.32780
|  8>    H        1.38880         1.12780         1.95610
|  9>    C        1.85810         1.15990        -0.16400
| 10>    C        2.59000         2.06230        -1.15420
| 11>    H        3.64890         2.08420        -0.91250
| 12>    H        2.19070         3.07180        -1.11270
| 13>    H        2.47610         1.67370        -2.16250
| 14>    O        2.37250        -0.14560        -0.38480
| 15>    C        1.78430        -1.20430         0.32260
| 16>    C        0.34660        -1.57260        -0.12060
| 17>    C       -0.63150        -0.58260         0.50100
| 18>    O       -0.59220        -0.25780         1.66380
| 19>    O       -1.56600        -0.16950        -0.35070
| 20>    C       -2.58110         0.71590         0.15250
| 21>    C       -2.06810         2.15200         0.14790
| 22>    H       -1.21250         2.24450         0.81260
| 23>    H       -1.77010         2.43880        -0.85840
| 24>    H       -2.85080         2.82250         0.49140
| 25>    C       -3.80170         0.53780        -0.73830
| 26>    H       -4.61450         1.16200        -0.37880
| 27>    H       -4.12430        -0.50010        -0.73320
| 28>    H       -3.55850         0.82120        -1.75910
| 29>    H       -2.80620         0.41390         1.18390
| 30>    C        0.24870        -1.62680        -1.64210
| 31>    H        0.94790        -2.36840        -2.02160
| 32>    H       -0.75730        -1.89560        -1.95240
| 33>    H        0.50280        -0.66500        -2.07820
| 34>    C       -0.01110        -2.93670         0.48700
| 35>    H        0.05290        -2.89430         1.57190
| 36>    H        0.67340        -3.69920         0.12310
| 37>    H       -1.02460        -3.21810         0.20850
| 38>    H        1.77710        -1.01510         1.40320
| 39>    H        2.43930        -2.05640         0.12100
| 40>    H        0.78140         1.17280        -0.39790
| 41> *
| 42> 
| 43>                          ****END OF INPUT****
================================================================================

                       *****************************
                       * Geometry Optimization Run *
                       *****************************

Geometry optimization settings:
Update method            Update   .... BFGS
Choice of coordinates    CoordSys .... Z-matrix Internals
Initial Hessian          InHess   .... Almoef's Model

Convergence Tolerances:
Energy Change            TolE     ....  5.0000e-06 Eh
Max. Gradient            TolMAXG  ....  3.0000e-04 Eh/bohr
RMS Gradient             TolRMSG  ....  1.0000e-04 Eh/bohr
Max. Displacement        TolMAXD  ....  4.0000e-03 bohr
RMS Displacement         TolRMSD  ....  2.0000e-03 bohr
Strict Convergence                ....  False
------------------------------------------------------------------------------
                        ORCA OPTIMIZATION COORDINATE SETUP
------------------------------------------------------------------------------

The optimization will be done in new redundant internal coordinates
Making redundant internal coordinates   ...  (new redundants) done
Evaluating the initial hessian          ...  (Almloef) done
Evaluating the coordinates              ...  done
Calculating the B-matrix                .... done
Calculating the G-matrix                .... done
Diagonalizing the G-matrix              .... done
Small eigenvalue found = 3.384e-03
Small eigenvalue found = 5.517e-03
Small eigenvalue found = 9.542e-03
Small eigenvalue found = 2.000e-02
Small eigenvalue found = 2.182e-02
Small eigenvalue found = 2.999e-02
The first mode is                       ....   78
The number of degrees of freedom        ....  102

    -----------------------------------------------------------------
                    Redundant Internal Coordinates


    -----------------------------------------------------------------
         Definition                    Initial Value    Approx d2E/dq
    -----------------------------------------------------------------
      1. B(H   1,C   0)                  1.0875         0.363408   
      2. B(H   2,C   0)                  1.0869         0.364256   
      3. B(H   3,C   0)                  1.0874         0.363493   
      4. B(C   4,C   0)                  1.5295         0.374314   
      5. B(C   5,C   4)                  1.5266         0.378274   
      6. B(H   6,C   5)                  1.0864         0.364954   
      7. B(H   7,C   5)                  1.0864         0.364901   
      8. B(H   8,C   5)                  1.0866         0.364655   
      9. B(O   9,C   4)                  1.4205         0.500366   
     10. B(C  10,O   9)                  1.4026         0.534318   
     11. B(C  11,C  10)                  1.5489         0.348533   
     12. B(C  12,C  11)                  1.5242         0.381629   
     13. B(O  13,C  12)                  1.2080         1.092256   
     14. B(O  14,C  12)                  1.3302         0.697174   
     15. B(C  15,O  14)                  1.4379         0.469295   
     16. B(C  16,C  15)                  1.5250         0.380524   
     17. B(H  17,C  16)                  1.0874         0.363559   
     18. B(H  18,C  16)                  1.0880         0.362784   
     19. B(H  19,C  16)                  1.0864         0.364945   
     20. B(C  20,C  15)                  1.5215         0.385356   
     21. B(H  21,C  20)                  1.0861         0.365360   
     22. B(H  22,C  20)                  1.0869         0.364236   
     23. B(H  23,C  20)                  1.0870         0.364136   
     24. B(H  24,C  15)                  1.0980         0.349638   
     25. B(C  25,C  11)                  1.5256         0.379649   
     26. B(H  26,C  25)                  1.0876         0.363290   
     27. B(H  27,C  25)                  1.0865         0.364702   
     28. B(H  28,C  25)                  1.0862         0.365175   
     29. B(C  29,C  11)                  1.5355         0.366043   
     30. B(H  30,C  29)                  1.0876         0.363272   
     31. B(H  31,C  29)                  1.0874         0.363598   
     32. B(H  32,C  29)                  1.0881         0.362641   
     33. B(H  33,C  10)                  1.0971         0.350878   
     34. B(H  34,C  10)                  1.0935         0.355500   
     35. B(H  35,C   4)                  1.1019         0.344711   
     36. A(H   3,C   0,C   4)          111.0409         0.324924   
     37. A(H   1,C   0,H   2)          108.9470         0.291784   
     38. A(H   1,C   0,H   3)          109.1850         0.291687   
     39. A(H   1,C   0,C   4)          109.8199         0.324912   
     40. A(H   2,C   0,C   4)          109.4942         0.325036   
     41. A(H   2,C   0,H   3)          108.3121         0.291794   
     42. A(C   0,C   4,O   9)          113.0253         0.379829   
     43. A(C   0,C   4,H  35)          108.8228         0.322108   
     44. A(C   5,C   4,O   9)          105.5949         0.380523   
     45. A(C   0,C   4,C   5)          111.0326         0.364252   
     46. A(C   5,C   4,H  35)          108.8969         0.322664   
     47. A(O   9,C   4,H  35)          109.3673         0.335888   
     48. A(H   7,C   5,H   8)          109.2228         0.292022   
     49. A(C   4,C   5,H   7)          110.3827         0.325694   
     50. A(H   6,C   5,H   8)          108.4118         0.292029   
     51. A(H   6,C   5,H   7)          109.3311         0.292060   
     52. A(C   4,C   5,H   6)          109.5677         0.325702   
     53. A(C   4,C   5,H   8)          109.8916         0.325658   
     54. A(C   4,O   9,C  10)          117.6111         0.401632   
     55. A(O   9,C  10,H  34)          104.1230         0.341338   
     56. A(H  33,C  10,H  34)          108.6578         0.289075   
     57. A(C  11,C  10,H  34)          108.5390         0.319979   
     58. A(C  11,C  10,H  33)          108.4673         0.319296   
     59. A(O   9,C  10,H  33)          111.6763         0.340592   
     60. A(O   9,C  10,C  11)          115.1147         0.379453   
     61. A(C  12,C  11,C  29)          105.4351         0.363411   
     62. A(C  10,C  11,C  29)          108.3147         0.357834   
     63. A(C  10,C  11,C  25)          110.6943         0.360064   
     64. A(C  25,C  11,C  29)          110.3721         0.363088   
     65. A(C  10,C  11,C  12)          108.9359         0.360384   
     66. A(C  12,C  11,C  25)          112.8686         0.365687   
     67. A(O  13,C  12,O  14)          123.7600         0.485206   
     68. A(C  11,C  12,O  14)          113.0432         0.403880   
     69. A(C  11,C  12,O  13)          123.1169         0.437559   
     70. A(C  12,O  14,C  15)          117.5889         0.416252   
     71. A(C  16,C  15,C  20)          112.2299         0.366441   
     72. A(O  14,C  15,C  20)          106.8201         0.377532   
     73. A(O  14,C  15,C  16)          109.9579         0.376709   
     74. A(C  20,C  15,H  24)          110.6882         0.324402   
     75. A(C  16,C  15,H  24)          109.3176         0.323731   
     76. A(O  14,C  15,H  24)          107.7032         0.333114   
     77. A(H  18,C  16,H  19)          109.0927         0.291791   
     78. A(H  17,C  16,H  19)          108.7302         0.291889   
     79. A(C  15,C  16,H  19)          109.7492         0.326018   
     80. A(H  17,C  16,H  18)          109.1138         0.291617   
     81. A(C  15,C  16,H  18)          110.0704         0.325700   
     82. A(C  15,C  16,H  17)          110.0568         0.325814   
     83. A(H  22,C  20,H  23)          108.6502         0.291873   
     84. A(H  21,C  20,H  23)          109.1756         0.292015   
     85. A(C  15,C  20,H  23)          109.8654         0.326577   
     86. A(H  21,C  20,H  22)          108.9747         0.292027   
     87. A(C  15,C  20,H  22)          110.3120         0.326592   
     88. A(C  15,C  20,H  21)          109.8344         0.326757   
     89. A(H  27,C  25,H  28)          108.7230         0.292063   
     90. A(H  26,C  25,H  28)          108.2577         0.291884   
     91. A(C  11,C  25,H  28)          110.7287         0.325929   
     92. A(H  26,C  25,H  27)          109.0802         0.291825   
     93. A(C  11,C  25,H  27)          110.6721         0.325859   
     94. A(C  11,C  25,H  26)          109.3273         0.325651   
     95. A(H  31,C  29,H  32)          108.6230         0.291604   
     96. A(H  30,C  29,H  32)          108.6755         0.291563   
     97. A(C  11,C  29,H  32)          110.2089         0.323610   
     98. A(H  30,C  29,H  31)          108.9123         0.291683   
     99. A(C  11,C  29,H  31)          110.1134         0.323750   
    100. A(C  11,C  29,H  30)          110.2651         0.323702   
    101. D(C   5,C   4,C   0,H   3)    169.0546         0.011185   
    102. D(C   5,C   4,C   0,H   2)     49.4976         0.011185   
    103. D(H  35,C   4,C   0,H   3)     49.2093         0.011185   
    104. D(C   5,C   4,C   0,H   1)    -70.0875         0.011185   
    105. D(O   9,C   4,C   0,H   3)    -72.4965         0.011185   
    106. D(H  35,C   4,C   0,H   1)    170.0673         0.011185   
    107. D(H  35,C   4,C   0,H   2)    -70.3477         0.011185   
    108. D(O   9,C   4,C   0,H   1)     48.3614         0.011185   
    109. D(O   9,C   4,C   0,H   2)    167.9465         0.011185   
    110. D(H   7,C   5,C   4,C   0)    -62.1634         0.011410   
    111. D(H   6,C   5,C   4,H  35)    178.0919         0.011410   
    112. D(H   7,C   5,C   4,H  35)     57.6377         0.011410   
    113. D(H   6,C   5,C   4,O   9)    -64.5561         0.011410   
    114. D(H   7,C   5,C   4,O   9)    174.9897         0.011410   
    115. D(H   8,C   5,C   4,H  35)    -62.8902         0.011410   
    116. D(H   8,C   5,C   4,O   9)     54.4618         0.011410   
    117. D(H   8,C   5,C   4,C   0)    177.3087         0.011410   
    118. D(H   6,C   5,C   4,C   0)     58.2908         0.011410   
    119. D(C  10,O   9,C   4,H  35)    -57.6287         0.019794   
    120. D(C  10,O   9,C   4,C   5)   -174.6630         0.019794   
    121. D(C  10,O   9,C   4,C   0)     63.7701         0.019794   
    122. D(H  34,C  10,O   9,C   4)   -170.9644         0.022689   
    123. D(H  33,C  10,O   9,C   4)    -53.8997         0.022689   
    124. D(C  11,C  10,O   9,C   4)     70.3479         0.022689   
    125. D(C  25,C  11,C  10,O   9)     44.9705         0.009794   
    126. D(C  25,C  11,C  10,H  34)    -71.2245         0.009794   
    127. D(C  12,C  11,C  10,H  34)    164.1096         0.009794   
    128. D(C  25,C  11,C  10,H  33)    170.8878         0.009794   
    129. D(C  12,C  11,C  10,O   9)    -79.6954         0.009794   
    130. D(C  29,C  11,C  10,O   9)    166.1030         0.009794   
    131. D(C  12,C  11,C  10,H  33)     46.2220         0.009794   
    132. D(C  29,C  11,C  10,H  34)     49.9081         0.009794   
    133. D(C  29,C  11,C  10,H  33)    -67.9796         0.009794   
    134. D(O  14,C  12,C  11,C  25)     13.4172         0.010862   
    135. D(O  14,C  12,C  11,C  10)    136.7960         0.010862   
    136. D(O  13,C  12,C  11,C  29)     69.7175         0.010862   
    137. D(O  13,C  12,C  11,C  25)   -169.7250         0.010862   
    138. D(O  14,C  12,C  11,C  29)   -107.1403         0.010862   
    139. D(O  13,C  12,C  11,C  10)    -46.3462         0.010862   
    140. D(C  15,O  14,C  12,O  13)      0.1061         0.036370   
    141. D(C  15,O  14,C  12,C  11)    176.9406         0.036370   
    142. D(H  24,C  15,O  14,C  12)    -35.9311         0.017359   
    143. D(C  20,C  15,O  14,C  12)   -154.8724         0.017359   
    144. D(C  16,C  15,O  14,C  12)     83.1044         0.017359   
    145. D(H  19,C  16,C  15,H  24)    -64.1881         0.011539   
    146. D(H  19,C  16,C  15,C  20)     59.0203         0.011539   
    147. D(H  19,C  16,C  15,O  14)    177.7704         0.011539   
    148. D(H  18,C  16,C  15,H  24)    175.7337         0.011539   
    149. D(H  18,C  16,C  15,C  20)    -61.0580         0.011539   
    150. D(H  18,C  16,C  15,O  14)     57.6922         0.011539   
    151. D(H  17,C  16,C  15,H  24)     55.4345         0.011539   
    152. D(H  17,C  16,C  15,C  20)    178.6428         0.011539   
    153. D(H  17,C  16,C  15,O  14)    -62.6070         0.011539   
    154. D(H  23,C  20,C  15,H  24)   -178.8575         0.011819   
    155. D(H  23,C  20,C  15,C  16)     58.7077         0.011819   
    156. D(H  23,C  20,C  15,O  14)    -61.8741         0.011819   
    157. D(H  22,C  20,C  15,H  24)    -59.1015         0.011819   
    158. D(H  22,C  20,C  15,C  16)    178.4638         0.011819   
    159. D(H  22,C  20,C  15,O  14)     57.8819         0.011819   
    160. D(H  21,C  20,C  15,H  24)     61.0368         0.011819   
    161. D(H  21,C  20,C  15,C  16)    -61.3980         0.011819   
    162. D(H  21,C  20,C  15,O  14)    178.0202         0.011819   
    163. D(H  26,C  25,C  11,C  10)     59.2227         0.011489   
    164. D(H  28,C  25,C  11,C  12)     62.4313         0.011489   
    165. D(H  28,C  25,C  11,C  10)    -59.9676         0.011489   
    166. D(H  27,C  25,C  11,C  29)     59.4866         0.011489   
    167. D(H  27,C  25,C  11,C  12)    -58.2072         0.011489   
    168. D(H  27,C  25,C  11,C  10)    179.3939         0.011489   
    169. D(H  26,C  25,C  11,C  29)    -60.6846         0.011489   
    170. D(H  28,C  25,C  11,C  29)   -179.8750         0.011489   
    171. D(H  26,C  25,C  11,C  12)   -178.3784         0.011489   
    172. D(H  32,C  29,C  11,C  25)    -59.6528         0.010725   
    173. D(H  32,C  29,C  11,C  10)    179.0156         0.010725   
    174. D(H  31,C  29,C  11,C  25)     60.1617         0.010725   
    175. D(H  31,C  29,C  11,C  12)   -177.6576         0.010725   
    176. D(H  31,C  29,C  11,C  10)    -61.1698         0.010725   
    177. D(H  30,C  29,C  11,C  25)   -179.6290         0.010725   
    178. D(H  32,C  29,C  11,C  12)     62.5278         0.010725   
    179. D(H  30,C  29,C  11,C  12)    -57.4484         0.010725   
    180. D(H  30,C  29,C  11,C  10)     59.0394         0.010725   
    -----------------------------------------------------------------

Number of atoms                         .... 36
Number of degrees of freedom            .... 180

         *************************************************************
         *                GEOMETRY OPTIMIZATION CYCLE   1            *
         *************************************************************
---------------------------------
CARTESIAN COORDINATES (ANGSTROEM)
---------------------------------
  C      2.056900    1.646200    1.272400
  H      3.085900    1.475800    1.580300
  H      1.843600    2.710500    1.327800
  H      1.388800    1.127800    1.956100
  C      1.858100    1.159900   -0.164000
  C      2.590000    2.062300   -1.154200
  H      3.648900    2.084200   -0.912500
  H      2.190700    3.071800   -1.112700
  H      2.476100    1.673700   -2.162500
  O      2.372500   -0.145600   -0.384800
  C      1.784300   -1.204300    0.322600
  C      0.346600   -1.572600   -0.120600
  C     -0.631500   -0.582600    0.501000
  O     -0.592200   -0.257800    1.663800
  O     -1.566000   -0.169500   -0.350700
  C     -2.581100    0.715900    0.152500
  C     -2.068100    2.152000    0.147900
  H     -1.212500    2.244500    0.812600
  H     -1.770100    2.438800   -0.858400
  H     -2.850800    2.822500    0.491400
  C     -3.801700    0.537800   -0.738300
  H     -4.614500    1.162000   -0.378800
  H     -4.124300   -0.500100   -0.733200
  H     -3.558500    0.821200   -1.759100
  H     -2.806200    0.413900    1.183900
  C      0.248700   -1.626800   -1.642100
  H      0.947900   -2.368400   -2.021600
  H     -0.757300   -1.895600   -1.952400
  H      0.502800   -0.665000   -2.078200
  C     -0.011100   -2.936700    0.487000
  H      0.052900   -2.894300    1.571900
  H      0.673400   -3.699200    0.123100
  H     -1.024600   -3.218100    0.208500
  H      1.777100   -1.015100    1.403200
  H      2.439300   -2.056400    0.121000
  H      0.781400    1.172800   -0.397900

----------------------------
CARTESIAN COORDINATES (A.U.)
----------------------------
  NO LB      ZA    FRAG     MASS         X           Y           Z
   0 C     6.0000    0    12.011    3.886978    3.110867    2.404488
   1 H     1.0000    0     1.008    5.831506    2.788858    2.986334
   2 H     1.0000    0     1.008    3.483899    5.122103    2.509178
   3 H     1.0000    0     1.008    2.624452    2.131233    3.696493
   4 C     6.0000    0    12.011    3.511300    2.191893   -0.309915
   5 C     6.0000    0    12.011    4.894391    3.897182   -2.181122
   6 H     1.0000    0     1.008    6.895422    3.938567   -1.724375
   7 H     1.0000    0     1.008    4.139823    5.804861   -2.102698
   8 H     1.0000    0     1.008    4.679151    3.162835   -4.086533
   9 O     8.0000    0    15.999    4.483375   -0.275144   -0.727167
  10 C     6.0000    0    12.011    3.371838   -2.275797    0.609626
  11 C     6.0000    0    12.011    0.654979   -2.971783   -0.227901
  12 C     6.0000    0    12.011   -1.193362   -1.100954    0.946753
  13 O     8.0000    0    15.999   -1.119096   -0.487171    3.144126
  14 O     8.0000    0    15.999   -2.959311   -0.320309   -0.662727
  15 C     6.0000    0    12.011   -4.877572    1.352855    0.288183
  16 C     6.0000    0    12.011   -3.908143    4.066691    0.279490
  17 H     1.0000    0     1.008   -2.291293    4.241490    1.535591
  18 H     1.0000    0     1.008   -3.345004    4.608664   -1.622141
  19 H     1.0000    0     1.008   -5.387231    5.333752    0.928611
  20 C     6.0000    0    12.011   -7.184172    1.016295   -1.395185
  21 H     1.0000    0     1.008   -8.720141    2.195862   -0.715828
  22 H     1.0000    0     1.008   -7.793797   -0.945052   -1.385547
  23 H     1.0000    0     1.008   -6.724590    1.551843   -3.324217
  24 H     1.0000    0     1.008   -5.302949    0.782158    2.237247
  25 C     6.0000    0    12.011    0.469975   -3.074206   -3.103119
  26 H     1.0000    0     1.008    1.791271   -4.475627   -3.820270
  27 H     1.0000    0     1.008   -1.431090   -3.582165   -3.689501
  28 H     1.0000    0     1.008    0.950154   -1.256668   -3.927229
  29 C     6.0000    0    12.011   -0.020976   -5.549559    0.920297
  30 H     1.0000    0     1.008    0.099967   -5.469434    2.970461
  31 H     1.0000    0     1.008    1.272542   -6.990475    0.232625
  32 H     1.0000    0     1.008   -1.936213   -6.081328    0.394008
  33 H     1.0000    0     1.008    3.358232   -1.918261    2.651664
  34 H     1.0000    0     1.008    4.609609   -3.886033    0.228657
  35 H     1.0000    0     1.008    1.476632    2.216271   -0.751922

--------------------------------
INTERNAL COORDINATES (ANGSTROEM)
--------------------------------
 C      0   0   0     0.000000000000     0.00000000     0.00000000
 H      1   0   0     1.087510721786     0.00000000     0.00000000
 H      1   2   0     1.086876506324   108.94702411     0.00000000
 H      1   2   3     1.087447405625   109.18497379   241.88966220
 C      1   2   3     1.529462026335   109.81985578   119.91883666
 C      5   1   2     1.526597330667   111.03262105   289.91253326
 H      6   5   1     1.086355241162   109.56766429    58.29078659
 H      6   5   1     1.086394490965   110.38266430   297.83660480
 H      6   5   1     1.086578142611   109.89163005   177.30866152
 O      5   1   2     1.420454240727   113.02531874    48.36144881
 C     10   5   1     1.402583220347   117.61108957    63.77014064
 C     11  10   5     1.548887478160   115.11471888    70.34794127
 C     12  11  10     1.524193613030   108.93588122   280.30455849
 O     13  12  11     1.207950069332   123.11685359   313.65378438
 O     13  12  11     1.330163429809   113.04323521   136.79595912
 C     15  13  12     1.437905215930   117.58889910   176.94055282
 C     16  15  13     1.524983072037   109.95792398    83.10437196
 H     17  16  15     1.087397673347   110.05682100   297.39299462
 H     17  16  15     1.087978827919   110.07035354    57.69217599
 H     17  16  15     1.086361721527   109.74922423   177.77042067
 C     16  15  13     1.521548096512   106.82010408   205.12762291
 H     21  16  15     1.086052360616   109.83439016   178.02017995
 H     21  16  15     1.086891521726   110.31200440    57.88193651
 H     21  16  15     1.086965703231   109.86542437   298.12588268
 H     16  15  13     1.098025486954   107.70320335   324.06891291
 C     12  11  10     1.525609484763   110.69433244    44.97045069
 H     26  12  11     1.087598938028   109.32729159    59.22270669
 H     26  12  11     1.086542925981   110.67205734   179.39393658
 H     26  12  11     1.086190250371   110.72869547   300.03238664
 C     12  11  10     1.535544157620   108.31471762   166.10302256
 H     30  12  11     1.087612876901   110.26507589    59.03943299
 H     30  12  11     1.087368249490   110.11336319   298.83015261
 H     30  12  11     1.088085685964   110.20893825   179.01562611
 H     11  10   5     1.097061912565   111.67629602   306.10028515
 H     11  10   5     1.093499871971   104.12300012   189.03558716
 H      5   1   2     1.101888610523   108.82281770   170.06726265

---------------------------
INTERNAL COORDINATES (A.U.)
---------------------------
 C      0   0   0     0.000000000000     0.00000000     0.00000000
 H      1   0   0     2.055097431879     0.00000000     0.00000000
 H      1   2   0     2.053898938346   108.94702411     0.00000000
 H      1   2   3     2.054977781674   109.18497379   241.88966220
 C      1   2   3     2.890264362005   109.81985578   119.91883666
 C      5   1   2     2.884850871736   111.03262105   289.91253326
 H      6   5   1     2.052913889946   109.56766429    58.29078659
 H      6   5   1     2.052988061325   110.38266430   297.83660480
 H      6   5   1     2.053335112640   109.89163005   177.30866152
 O      5   1   2     2.684269500742   113.02531874    48.36144881
 C     10   5   1     2.650498166490   117.61108957    63.77014064
 C     11  10   5     2.926973145982   115.11471888    70.34794127
 C     12  11  10     2.880308503698   108.93588122   280.30455849
 O     13  12  11     2.282694814489   123.11685359   313.65378438
 O     13  12  11     2.513644595696   113.04323521   136.79595912
 C     15  13  12     2.717247064645   117.58889910   176.94055282
 C     16  15  13     2.881800365016   109.95792398    83.10437196
 H     17  16  15     2.054883801289   110.05682100   297.39299462
 H     17  16  15     2.055982024272   110.07035354    57.69217599
 H     17  16  15     2.052926136062   109.74922423   177.77042067
 C     16  15  13     2.875309201997   106.82010408   205.12762291
 H     21  16  15     2.052341528663   109.83439016   178.02017995
 H     21  16  15     2.053927313343   110.31200440    57.88193651
 H     21  16  15     2.054067496071   109.86542437   298.12588268
 H     16  15  13     2.074967458408   107.70320335   324.06891291
 C     12  11  10     2.882984113516   110.69433244    44.97045069
 H     26  12  11     2.055264136417   109.32729159    59.22270669
 H     26  12  11     2.053268562854   110.67205734   179.39393658
 H     26  12  11     2.052602102536   110.72869547   300.03238664
 C     12  11  10     2.901757924444   108.31471762   166.10302256
 H     30  12  11     2.055290477068   110.26507589    59.03943299
 H     30  12  11     2.054828198258   110.11336319   298.83015261
 H     30  12  11     2.056183956712   110.20893825   179.01562611
 H     11  10   5     2.073146566703   111.67629602   306.10028515
 H     11  10   5     2.066415285503   104.12300012   189.03558716
 H      5   1   2     2.082267703975   108.82281770   170.06726265

---------------------
BASIS SET INFORMATION
---------------------
There are 3 groups of distinct atoms

 Group   1 Type C   : 7s4p1d contracted to 3s2p1d pattern {511/31/1}
 Group   2 Type H   : 4s1p contracted to 2s1p pattern {31/1}
 Group   3 Type O   : 7s4p1d contracted to 3s2p1d pattern {511/31/1}

Atom   0C    basis set group =>   1
Atom   1H    basis set group =>   2
Atom   2H    basis set group =>   2
Atom   3H    basis set group =>   2
Atom   4C    basis set group =>   1
Atom   5C    basis set group =>   1
Atom   6H    basis set group =>   2
Atom   7H    basis set group =>   2
Atom   8H    basis set group =>   2
Atom   9O    basis set group =>   3
Atom  10C    basis set group =>   1
Atom  11C    basis set group =>   1
Atom  12C    basis set group =>   1
Atom  13O    basis set group =>   3
Atom  14O    basis set group =>   3
Atom  15C    basis set group =>   1
Atom  16C    basis set group =>   1
Atom  17H    basis set group =>   2
Atom  18H    basis set group =>   2
Atom  19H    basis set group =>   2
Atom  20C    basis set group =>   1
Atom  21H    basis set group =>   2
Atom  22H    basis set group =>   2
Atom  23H    basis set group =>   2
Atom  24H    basis set group =>   2
Atom  25C    basis set group =>   1
Atom  26H    basis set group =>   2
Atom  27H    basis set group =>   2
Atom  28H    basis set group =>   2
Atom  29C    basis set group =>   1
Atom  30H    basis set group =>   2
Atom  31H    basis set group =>   2
Atom  32H    basis set group =>   2
Atom  33H    basis set group =>   2
Atom  34H    basis set group =>   2
Atom  35H    basis set group =>   2
------------------------------------------------------------------------------
                           ORCA GTO INTEGRAL CALCULATION
------------------------------------------------------------------------------

                         BASIS SET STATISTICS AND STARTUP INFO

 # of primitive gaussian shells          ...  278
 # of primitive gaussian functions       ...  490
 # of contracted shells                  ...  150
 # of contracted basis functions         ...  306
 Highest angular momentum                ...    2
 Maximum contraction depth               ...    5
 Integral package used                   ... LIBINT
 Integral threshhold            Thresh   ...  2.500e-11
 Primitive cut-off              TCut     ...  2.500e-12


------------------------------ INTEGRAL EVALUATION ----------------------------


 * One electron integrals 
 Pre-screening matrix                    ... done
 Shell pair data                         ... done (   0.003 sec)

-------------------------------------------------------------------------------
                                 ORCA SCF
-------------------------------------------------------------------------------

------------
SCF SETTINGS
------------
Hamiltonian:
 Density Functional     Method          .... DFT(GTOs)
 Exchange Functional    Exchange        .... WB97X-D3
 Correlation Functional Correlation     .... WB97X-D3
 Gradients option       PostSCFGGA      .... off
 Hybrid DFT is turned on
   Fraction HF Exchange ScalHFX         ....  0.195728
   Scaling of DF-GGA-X  ScalDFX         ....  0.000000
   Scaling of DF-GGA-C  ScalDFC         ....  1.000000
   Scaling of DF-LDA-C  ScalLDAC        ....  1.000000
   Perturbative correction              ....  0.000000
   Density functional embedding theory  .... OFF
 Long-range corrected/Screened/Range-Separated Hybrid DFT is turned on
   Amount of maximum screened exact exchange              ....  0.804272
   Range separation parameter mu (erf(mu*r12)/r12)        ....  0.250000


General Settings:
 Integral files         IntName         .... 023514586
 Hartree-Fock type      HFTyp           .... RHF
 Total Charge           Charge          ....    0
 Multiplicity           Mult            ....    1
 Number of Electrons    NEL             ....  112
 Basis Dimension        Dim             ....  306
 Nuclear Repulsion      ENuc            ....   1045.2685541801 Eh

Convergence Acceleration:
 DIIS                   CNVDIIS         .... on
   Start iteration      DIISMaxIt       ....    12
   Startup error        DIISStart       ....  0.200000
   # of expansion vecs  DIISMaxEq       ....     5
   Bias factor          DIISBfac        ....   1.050
   Max. coefficient     DIISMaxC        ....  10.000
 Newton-Raphson         CNVNR           .... off
 SOSCF                  CNVSOSCF        .... on
   Start iteration      SOSCFMaxIt      ....   150
   Startup grad/error   SOSCFStart      ....  0.003300
 Level Shifting         CNVShift        .... on
   Level shift para.    LevelShift      ....    0.2500
   Turn off err/grad.   ShiftErr        ....    0.0010
 Zerner damping         CNVZerner       .... off
 Static damping         CNVDamp         .... on
   Fraction old density DampFac         ....    0.7000
   Max. Damping (<1)    DampMax         ....    0.9800
   Min. Damping (>=0)   DampMin         ....    0.0000
   Turn off err/grad.   DampErr         ....    0.1000
 Fernandez-Rico         CNVRico         .... off

SCF Procedure:
 Maximum # iterations   MaxIter         ....   125
 SCF integral mode      SCFMode         .... Direct
   Integral package                     .... LIBINT
 Reset frequency        DirectResetFreq ....    20
 Integral Threshold     Thresh          ....  2.500e-11 Eh
 Primitive CutOff       TCut            ....  2.500e-12 Eh

Convergence Tolerance:
 Convergence Check Mode ConvCheckMode   .... Total+1el-Energy
 Convergence forced     ConvForced      .... 0
 Energy Change          TolE            ....  1.000e-08 Eh
 1-El. energy change                    ....  1.000e-05 Eh
 Orbital Gradient       TolG            ....  1.000e-05
 Orbital Rotation angle TolX            ....  1.000e-05
 DIIS Error             TolErr          ....  5.000e-07


Diagonalization of the overlap matrix:
Smallest eigenvalue                        ... 9.463e-04
Time for diagonalization                   ...    0.070 sec
Threshold for overlap eigenvalues          ... 1.000e-08
Number of eigenvalues below threshold      ... 0
Time for construction of square roots      ...    0.005 sec
Total time needed                          ...    0.076 sec

-------------------
DFT GRID GENERATION
-------------------

General Integration Accuracy     IntAcc      ...  4.340
Radial Grid Type                 RadialGrid  ... Gauss-Chebyshev
Angular Grid (max. acc.)         AngularGrid ... Lebedev-110
Angular grid pruning method      GridPruning ... 3 (G Style)
Weight generation scheme         WeightScheme... Becke
Basis function cutoff            BFCut       ...    1.0000e-11
Integration weight cutoff        WCut        ...    1.0000e-14
Grids for H and He will be reduced by one unit

# of grid points (after initial pruning)     ...  40832 (   0.0 sec)
# of grid points (after weights+screening)   ...  36164 (   0.3 sec)
nearest neighbour list constructed           ...    0.0 sec
Grid point re-assignment to atoms done       ...    0.0 sec
Grid point division into batches done        ...    0.0 sec
Reduced shell lists constructed in    0.4 sec

Total number of grid points                  ...    36164
Total number of batches                      ...      584
Average number of points per batch           ...       61
Average number of grid points per atom       ...     1005
Average number of shells per batch           ...    90.77 (60.51%)
Average number of basis functions per batch  ...   172.50 (56.37%)
Average number of large shells per batch     ...    62.59 (68.96%)
Average number of large basis fcns per batch ...   117.64 (68.20%)
Maximum spatial batch extension              ...  21.49, 20.10, 21.96 au
Average spatial batch extension              ...   3.19,  3.26,  3.35 au

Time for grid setup =    0.686 sec

------------------------------
INITIAL GUESS: MODEL POTENTIAL
------------------------------
Loading Hartree-Fock densities                     ... done
Calculating cut-offs                               ... done
Setting up the integral package                    ... done
Initializing the effective Hamiltonian             ... done
Starting the Coulomb interaction                   ... done (   0.5 sec)
Reading the grid                                   ... done
Mapping shells                                     ... done
Starting the XC term evaluation                    ... done (   0.6 sec)
  promolecular density results
     # of electrons  =    112.004592747
     EX              =    -87.270736334
     EC              =     -3.722422841
     EX+EC           =    -90.993159175
Transforming the Hamiltonian                       ... done (   0.0 sec)
Diagonalizing the Hamiltonian                      ... done (   0.0 sec)
Back transforming the eigenvectors                 ... done (   0.0 sec)
Now organizing SCF variables                       ... done
                      ------------------
                      INITIAL GUESS DONE (   1.9 sec)
                      ------------------
--------------
SCF ITERATIONS
--------------
ITER       Energy         Delta-E        Max-DP      RMS-DP      [F,P]     Damp
               ***  Starting incremental Fock matrix formation  ***
  0   -657.0534038940   0.000000000000 0.07694385  0.00143230  0.2338919 0.7000
  1   -657.2185192682  -0.165115374229 0.05709892  0.00100786  0.1117976 0.7000
                               ***Turning on DIIS***
  2   -657.3010115748  -0.082492306571 0.09508172  0.00189223  0.0507524 0.0000
  3   -657.4348139293  -0.133802354529 0.03754085  0.00070695  0.0534555 0.0000
  4   -657.4546844498  -0.019870520528 0.00903260  0.00015865  0.0084059 0.0000
  5   -657.4552364696  -0.000552019731 0.00450551  0.00006857  0.0076154 0.0000
                      *** Initiating the SOSCF procedure ***
                           *** Shutting down DIIS ***
                      *** Re-Reading the Fockian *** 
                      *** Removing any level shift *** 
ITER      Energy       Delta-E        Grad      Rot      Max-DP    RMS-DP
  6   -657.45535062  -0.0001141493  0.000823  0.000823  0.002130  0.000040
               *** Restarting incremental Fock matrix formation ***
  7   -657.45536022  -0.0000096051  0.000243  0.000298  0.001147  0.000019
  8   -657.45535982   0.0000004061  0.000565  0.000531  0.000659  0.000008
  9   -657.45536287  -0.0000030555  0.000043  0.000102  0.000201  0.000003
 10   -657.45536292  -0.0000000431  0.000031  0.000067  0.000078  0.000001
 11   -657.45536295  -0.0000000323  0.000005  0.000004  0.000019  0.000000
 12   -657.45536295  -0.0000000039  0.000003  0.000002  0.000010  0.000000
                  ***Gradient check signals convergence***
              ***Rediagonalizing the Fockian in SOSCF/NRSCF***

               *****************************************************
               *                     SUCCESS                       *
               *           SCF CONVERGED AFTER  13 CYCLES          *
               *****************************************************

Setting up the final grid:

General Integration Accuracy     IntAcc      ...  4.670
Radial Grid Type                 RadialGrid  ... Gauss-Chebyshev
Angular Grid (max. acc.)         AngularGrid ... Lebedev-302
Angular grid pruning method      GridPruning ... 3 (G Style)
Weight generation scheme         WeightScheme... Becke
Basis function cutoff            BFCut       ...    1.0000e-11
Integration weight cutoff        WCut        ...    1.0000e-14
Grids for H and He will be reduced by one unit

# of grid points (after initial pruning)     ... 161636 (   0.1 sec)
# of grid points (after weights+screening)   ... 139882 (   1.2 sec)
nearest neighbour list constructed           ...    0.0 sec
Grid point re-assignment to atoms done       ...    0.0 sec
Grid point division into batches done        ...    0.4 sec
Reduced shell lists constructed in    1.6 sec

Total number of grid points                  ...   139882
Total number of batches                      ...     2203
Average number of points per batch           ...       63
Average number of grid points per atom       ...     3886
Average number of shells per batch           ...    83.11 (55.41%)
Average number of basis functions per batch  ...   156.23 (51.06%)
Average number of large shells per batch     ...    56.00 (67.38%)
Average number of large basis fcns per batch ...   104.24 (66.72%)
Maximum spatial batch extension              ...  18.17, 20.31, 21.69 au
Average spatial batch extension              ...   2.09,  2.15,  2.15 au

Final grid set up in    2.9 sec
Final integration                            ... done (   3.0 sec)
Change in XC energy                          ...     0.000289725
Integrated number of electrons               ...   111.999889111
Previous integrated no of electrons          ...   112.008858587

----------------
TOTAL SCF ENERGY
----------------

Total Energy       :         -657.45507323 Eh          -17890.26207 eV

Components:
Nuclear Repulsion  :         1045.26855418 Eh           28443.20338 eV
Electronic Energy  :        -1702.72362741 Eh          -46333.46545 eV
One Electron Energy:        -2968.78852159 Eh          -80784.84269 eV
Two Electron Energy:         1266.06489418 Eh           34451.37724 eV

Virial components:
Potential Energy   :        -1308.08843034 Eh          -35594.89580 eV
Kinetic Energy     :          650.63335711 Eh           17704.63373 eV
Virial Ratio       :            2.01048473


DFT components:
N(Alpha)           :       55.999944555352 electrons
N(Beta)            :       55.999944555352 electrons
N(Total)           :      111.999889110704 electrons
E(XC)              :      -64.037219503791 Eh       
DFET-embed. en.    :        0.000000000000 Eh       

---------------
SCF CONVERGENCE
---------------

  Last Energy change         ...    6.2687e-10  Tolerance :   1.0000e-08
  Last MAX-Density change    ...    1.1530e-06  Tolerance :   1.0000e-07
  Last RMS-Density change    ...    2.9292e-08  Tolerance :   5.0000e-09
  Last Orbital Gradient      ...    3.5246e-07  Tolerance :   1.0000e-05
  Last Orbital Rotation      ...    8.4466e-07  Tolerance :   1.0000e-05

             **** THE GBW FILE WAS UPDATED (023514586.gbw) ****
             **** DENSITY FILE WAS UPDATED (023514586.scfp) ****
             **** ENERGY FILE WAS UPDATED (023514586.en.tmp) ****
             **** THE GBW FILE WAS UPDATED (023514586.gbw) ****
             **** DENSITY FILE WAS UPDATED (023514586.scfp) ****
----------------
ORBITAL ENERGIES
----------------

  NO   OCC          E(Eh)            E(eV) 
   0   2.0000     -19.287221      -524.8320 
   1   2.0000     -19.232486      -523.3426 
   2   2.0000     -19.225976      -523.1654 
   3   2.0000     -10.414736      -283.3994 
   4   2.0000     -10.352325      -281.7011 
   5   2.0000     -10.331797      -281.1425 
   6   2.0000     -10.327612      -281.0286 
   7   2.0000     -10.305942      -280.4390 
   8   2.0000     -10.286763      -279.9171 
   9   2.0000     -10.286286      -279.9041 
  10   2.0000     -10.284816      -279.8641 
  11   2.0000     -10.273303      -279.5508 
  12   2.0000     -10.269398      -279.4445 
  13   2.0000     -10.266150      -279.3561 
  14   2.0000      -1.219966       -33.1970 
  15   2.0000      -1.136198       -30.9175 
  16   2.0000      -1.122120       -30.5344 
  17   2.0000      -0.941764       -25.6267 
  18   2.0000      -0.907898       -24.7052 
  19   2.0000      -0.883798       -24.0494 
  20   2.0000      -0.809837       -22.0368 
  21   2.0000      -0.800263       -21.7763 
  22   2.0000      -0.795986       -21.6599 
  23   2.0000      -0.775593       -21.1049 
  24   2.0000      -0.766539       -20.8586 
  25   2.0000      -0.704781       -19.1781 
  26   2.0000      -0.669429       -18.2161 
  27   2.0000      -0.655789       -17.8449 
  28   2.0000      -0.607273       -16.5247 
  29   2.0000      -0.601321       -16.3628 
  30   2.0000      -0.587714       -15.9925 
  31   2.0000      -0.574458       -15.6318 
  32   2.0000      -0.567653       -15.4466 
  33   2.0000      -0.553972       -15.0744 
  34   2.0000      -0.539059       -14.6685 
  35   2.0000      -0.533976       -14.5302 
  36   2.0000      -0.522713       -14.2237 
  37   2.0000      -0.510664       -13.8959 
  38   2.0000      -0.500802       -13.6275 
  39   2.0000      -0.496921       -13.5219 
  40   2.0000      -0.490829       -13.3561 
  41   2.0000      -0.483465       -13.1558 
  42   2.0000      -0.479869       -13.0579 
  43   2.0000      -0.477292       -12.9878 
  44   2.0000      -0.469588       -12.7781 
  45   2.0000      -0.465406       -12.6643 
  46   2.0000      -0.457592       -12.4517 
  47   2.0000      -0.452397       -12.3104 
  48   2.0000      -0.436986       -11.8910 
  49   2.0000      -0.434163       -11.8142 
  50   2.0000      -0.429611       -11.6903 
  51   2.0000      -0.426270       -11.5994 
  52   2.0000      -0.395490       -10.7618 
  53   2.0000      -0.387175       -10.5356 
  54   2.0000      -0.367501       -10.0002 
  55   2.0000      -0.341433        -9.2909 
  56   0.0000       0.094133         2.5615 
  57   0.0000       0.129100         3.5130 
  58   0.0000       0.153341         4.1726 
  59   0.0000       0.156132         4.2486 
  60   0.0000       0.172807         4.7023 
  61   0.0000       0.185218         5.0400 
  62   0.0000       0.186976         5.0879 
  63   0.0000       0.195489         5.3195 
  64   0.0000       0.201071         5.4714 
  65   0.0000       0.203892         5.5482 
  66   0.0000       0.206922         5.6306 
  67   0.0000       0.215847         5.8735 
  68   0.0000       0.225665         6.1407 
  69   0.0000       0.232428         6.3247 
  70   0.0000       0.234412         6.3787 
  71   0.0000       0.236852         6.4451 
  72   0.0000       0.244092         6.6421 
  73   0.0000       0.251168         6.8346 
  74   0.0000       0.252986         6.8841 
  75   0.0000       0.259734         7.0677 
  76   0.0000       0.261598         7.1185 
  77   0.0000       0.267367         7.2754 
  78   0.0000       0.277686         7.5562 
  79   0.0000       0.286426         7.7940 
  80   0.0000       0.290594         7.9075 
  81   0.0000       0.298181         8.1139 
  82   0.0000       0.303373         8.2552 
  83   0.0000       0.315501         8.5852 
  84   0.0000       0.322715         8.7815 
  85   0.0000       0.329038         8.9536 
  86   0.0000       0.339765         9.2455 
  87   0.0000       0.345666         9.4060 
  88   0.0000       0.355455         9.6724 
  89   0.0000       0.371880        10.1194 
  90   0.0000       0.421790        11.4775 
  91   0.0000       0.450004        12.2452 
  92   0.0000       0.480768        13.0824 
  93   0.0000       0.489436        13.3182 
  94   0.0000       0.508614        13.8401 
  95   0.0000       0.511520        13.9192 
  96   0.0000       0.529659        14.4128 
  97   0.0000       0.537572        14.6281 
  98   0.0000       0.549341        14.9483 
  99   0.0000       0.563732        15.3399 
 100   0.0000       0.574016        15.6198 
 101   0.0000       0.587795        15.9947 
 102   0.0000       0.593932        16.1617 
 103   0.0000       0.601992        16.3810 
 104   0.0000       0.616749        16.7826 
 105   0.0000       0.636910        17.3312 
 106   0.0000       0.652602        17.7582 
 107   0.0000       0.663102        18.0439 
 108   0.0000       0.676227        18.4011 
 109   0.0000       0.682156        18.5624 
 110   0.0000       0.689375        18.7588 
 111   0.0000       0.697144        18.9703 
 112   0.0000       0.713338        19.4109 
 113   0.0000       0.723280        19.6814 
 114   0.0000       0.727213        19.7885 
 115   0.0000       0.731245        19.8982 
 116   0.0000       0.736403        20.0385 
 117   0.0000       0.740848        20.1595 
 118   0.0000       0.744537        20.2599 
 119   0.0000       0.753190        20.4953 
 120   0.0000       0.754631        20.5345 
 121   0.0000       0.758190        20.6314 
 122   0.0000       0.761913        20.7327 
 123   0.0000       0.767179        20.8760 
 124   0.0000       0.772088        21.0096 
 125   0.0000       0.775646        21.1064 
 126   0.0000       0.779451        21.2099 
 127   0.0000       0.786146        21.3921 
 128   0.0000       0.789054        21.4712 
 129   0.0000       0.791657        21.5421 
 130   0.0000       0.798034        21.7156 
 131   0.0000       0.801834        21.8190 
 132   0.0000       0.805354        21.9148 
 133   0.0000       0.809555        22.0291 
 134   0.0000       0.809810        22.0361 
 135   0.0000       0.813835        22.1456 
 136   0.0000       0.825541        22.4641 
 137   0.0000       0.827394        22.5145 
 138   0.0000       0.830539        22.6001 
 139   0.0000       0.833259        22.6741 
 140   0.0000       0.845451        23.0059 
 141   0.0000       0.848142        23.0791 
 142   0.0000       0.862156        23.4605 
 143   0.0000       0.867046        23.5935 
 144   0.0000       0.872109        23.7313 
 145   0.0000       0.901249        24.5242 
 146   0.0000       0.943498        25.6739 
 147   0.0000       0.949740        25.8437 
 148   0.0000       0.971273        26.4297 
 149   0.0000       1.016300        27.6549 
 150   0.0000       1.045232        28.4422 
 151   0.0000       1.071843        29.1663 
 152   0.0000       1.087975        29.6053 
 153   0.0000       1.101829        29.9823 
 154   0.0000       1.106805        30.1177 
 155   0.0000       1.132435        30.8151 
 156   0.0000       1.172479        31.9048 
 157   0.0000       1.183039        32.1921 
 158   0.0000       1.196629        32.5619 
 159   0.0000       1.222274        33.2598 
 160   0.0000       1.223633        33.2968 
 161   0.0000       1.243780        33.8450 
 162   0.0000       1.251563        34.0568 
 163   0.0000       1.276921        34.7468 
 164   0.0000       1.293644        35.2018 
 165   0.0000       1.322012        35.9738 
 166   0.0000       1.348781        36.7022 
 167   0.0000       1.368868        37.2488 
 168   0.0000       1.388362        37.7792 
 169   0.0000       1.399837        38.0915 
 170   0.0000       1.414827        38.4994 
 171   0.0000       1.423815        38.7440 
 172   0.0000       1.447907        39.3996 
 173   0.0000       1.483352        40.3641 
 174   0.0000       1.491947        40.5979 
 175   0.0000       1.535517        41.7836 
 176   0.0000       1.557380        42.3785 
 177   0.0000       1.565003        42.5859 
 178   0.0000       1.599424        43.5225 
 179   0.0000       1.619702        44.0743 
 180   0.0000       1.629425        44.3389 
 181   0.0000       1.634455        44.4758 
 182   0.0000       1.638643        44.5897 
 183   0.0000       1.642910        44.7059 
 184   0.0000       1.648514        44.8583 
 185   0.0000       1.660873        45.1947 
 186   0.0000       1.670069        45.4449 
 187   0.0000       1.681499        45.7559 
 188   0.0000       1.686071        45.8803 
 189   0.0000       1.728166        47.0258 
 190   0.0000       1.739211        47.3263 
 191   0.0000       1.754075        47.7308 
 192   0.0000       1.772045        48.2198 
 193   0.0000       1.798796        48.9477 
 194   0.0000       1.805680        49.1350 
 195   0.0000       1.832382        49.8616 
 196   0.0000       1.834248        49.9124 
 197   0.0000       1.846793        50.2538 
 198   0.0000       1.867999        50.8308 
 199   0.0000       1.874964        51.0204 
 200   0.0000       1.878597        51.1192 
 201   0.0000       1.888421        51.3865 
 202   0.0000       1.890574        51.4451 
 203   0.0000       1.899492        51.6878 
 204   0.0000       1.904739        51.8306 
 205   0.0000       1.908212        51.9251 
 206   0.0000       1.911862        52.0244 
 207   0.0000       1.929504        52.5045 
 208   0.0000       1.933150        52.6037 
 209   0.0000       1.939559        52.7781 
 210   0.0000       1.945409        52.9373 
 211   0.0000       1.952386        53.1271 
 212   0.0000       1.956426        53.2371 
 213   0.0000       1.964549        53.4581 
 214   0.0000       1.971970        53.6600 
 215   0.0000       1.977211        53.8026 
 216   0.0000       1.985063        54.0163 
 217   0.0000       1.994722        54.2792 
 218   0.0000       2.000002        54.4228 
 219   0.0000       2.009851        54.6908 
 220   0.0000       2.023736        55.0686 
 221   0.0000       2.031143        55.2702 
 222   0.0000       2.044058        55.6216 
 223   0.0000       2.060506        56.0692 
 224   0.0000       2.070074        56.3296 
 225   0.0000       2.071445        56.3669 
 226   0.0000       2.081603        56.6433 
 227   0.0000       2.092626        56.9432 
 228   0.0000       2.101203        57.1766 
 229   0.0000       2.110199        57.4214 
 230   0.0000       2.126518        57.8655 
 231   0.0000       2.136234        58.1299 
 232   0.0000       2.146308        58.4040 
 233   0.0000       2.152468        58.5716 
 234   0.0000       2.186138        59.4879 
 235   0.0000       2.191238        59.6266 
 236   0.0000       2.217726        60.3474 
 237   0.0000       2.236905        60.8693 
 238   0.0000       2.245746        61.1099 
 239   0.0000       2.278066        61.9893 
 240   0.0000       2.312947        62.9385 
 241   0.0000       2.323322        63.2208 
 242   0.0000       2.343761        63.7770 
 243   0.0000       2.353975        64.0549 
 244   0.0000       2.364933        64.3531 
 245   0.0000       2.381583        64.8062 
 246   0.0000       2.413115        65.6642 
 247   0.0000       2.439917        66.3935 
 248   0.0000       2.473748        67.3141 
 249   0.0000       2.491895        67.8079 
 250   0.0000       2.494417        67.8765 
 251   0.0000       2.504686        68.1560 
 252   0.0000       2.522167        68.6316 
 253   0.0000       2.539167        69.0942 
 254   0.0000       2.546821        69.3025 
 255   0.0000       2.554081        69.5001 
 256   0.0000       2.581222        70.2386 
 257   0.0000       2.592568        70.5474 
 258   0.0000       2.619039        71.2677 
 259   0.0000       2.637063        71.7581 
 260   0.0000       2.640068        71.8399 
 261   0.0000       2.672201        72.7143 
 262   0.0000       2.684212        73.0411 
 263   0.0000       2.697185        73.3941 
 264   0.0000       2.706711        73.6534 
 265   0.0000       2.718053        73.9620 
 266   0.0000       2.729421        74.2713 
 267   0.0000       2.759595        75.0924 
 268   0.0000       2.775461        75.5241 
 269   0.0000       2.806663        76.3732 
 270   0.0000       2.832166        77.0671 
 271   0.0000       2.842128        77.3382 
 272   0.0000       2.859472        77.8102 
 273   0.0000       2.910356        79.1948 
 274   0.0000       2.926142        79.6244 
 275   0.0000       2.931792        79.7781 
 276   0.0000       2.955331        80.4187 
 277   0.0000       2.963438        80.6393 
 278   0.0000       2.982236        81.1508 
 279   0.0000       2.985634        81.2432 
 280   0.0000       2.992080        81.4186 
 281   0.0000       3.001239        81.6679 
 282   0.0000       3.023172        82.2647 
 283   0.0000       3.031445        82.4898 
 284   0.0000       3.039168        82.7000 
 285   0.0000       3.050768        83.0156 
 286   0.0000       3.061483        83.3072 
 287   0.0000       3.063878        83.3723 
 288   0.0000       3.092816        84.1598 
 289   0.0000       3.104659        84.4821 
 290   0.0000       3.116221        84.7967 
 291   0.0000       3.129339        85.1536 
 292   0.0000       3.136963        85.3611 
 293   0.0000       3.154125        85.8281 
 294   0.0000       3.173090        86.3442 
 295   0.0000       3.194611        86.9298 
 296   0.0000       3.203137        87.1618 
 297   0.0000       3.212032        87.4038 
 298   0.0000       3.274991        89.1170 
 299   0.0000       3.326768        90.5260 
 300   0.0000       3.346093        91.0518 
 301   0.0000       3.510590        95.5280 
 302   0.0000       3.573375        97.2365 
 303   0.0000       3.665687        99.7484 
 304   0.0000       3.740359       101.7803 
 305   0.0000       3.811719       103.7221 

                    ********************************
                    * MULLIKEN POPULATION ANALYSIS *
                    ********************************

-----------------------
MULLIKEN ATOMIC CHARGES
-----------------------
   0 C :   -0.039529
   1 H :    0.032492
   2 H :    0.027475
   3 H :    0.054687
   4 C :    0.016641
   5 C :    0.009796
   6 H :    0.033084
   7 H :    0.023093
   8 H :    0.033389
   9 O :   -0.401969
  10 C :    0.282130
  11 C :   -0.468456
  12 C :    0.270576
  13 O :   -0.251960
  14 O :   -0.309611
  15 C :    0.022521
  16 C :   -0.023410
  17 H :    0.051285
  18 H :    0.036369
  19 H :    0.039954
  20 C :   -0.000717
  21 H :    0.036435
  22 H :    0.042193
  23 H :    0.035566
  24 H :    0.045474
  25 C :    0.106559
  26 H :    0.021309
  27 H :    0.027036
  28 H :    0.032877
  29 C :    0.038912
  30 H :    0.047798
  31 H :    0.036384
  32 H :    0.032441
  33 H :    0.026699
  34 H :    0.020522
  35 H :    0.011956
Sum of atomic charges:    0.0000000

--------------------------------
MULLIKEN REDUCED ORBITAL CHARGES
--------------------------------
  0 C s       :     3.000571  s :     3.000571
      pz      :     0.984154  p :     3.012634
      px      :     1.027200
      py      :     1.001281
      dz2     :     0.006727  d :     0.026324
      dxz     :     0.006098
      dyz     :     0.004030
      dx2y2   :     0.006946
      dxy     :     0.002522
  1 H s       :     0.943872  s :     0.943872
      pz      :     0.004790  p :     0.023636
      px      :     0.013631
      py      :     0.005214
  2 H s       :     0.948426  s :     0.948426
      pz      :     0.004469  p :     0.024099
      px      :     0.005608
      py      :     0.014023
  3 H s       :     0.919655  s :     0.919655
      pz      :     0.008100  p :     0.025658
      px      :     0.009632
      py      :     0.007926
  4 C s       :     3.086238  s :     3.086238
      pz      :     1.038544  p :     2.825248
      px      :     0.999868
      py      :     0.786836
      dz2     :     0.015095  d :     0.071873
      dxz     :     0.007409
      dyz     :     0.016736
      dx2y2   :     0.019061
      dxy     :     0.013572
  5 C s       :     2.979254  s :     2.979254
      pz      :     0.998350  p :     2.983922
      px      :     1.011273
      py      :     0.974299
      dz2     :     0.008167  d :     0.027028
      dxz     :     0.002992
      dyz     :     0.004540
      dx2y2   :     0.007171
      dxy     :     0.004157
  6 H s       :     0.943121  s :     0.943121
      pz      :     0.005023  p :     0.023795
      px      :     0.013950
      py      :     0.004822
  7 H s       :     0.953254  s :     0.953254
      pz      :     0.004710  p :     0.023653
      px      :     0.006033
      py      :     0.012910
  8 H s       :     0.942960  s :     0.942960
      pz      :     0.012716  p :     0.023651
      px      :     0.004910
      py      :     0.006025
  9 O s       :     3.761184  s :     3.761184
      pz      :     1.717249  p :     4.625020
      px      :     1.701892
      py      :     1.205880
      dz2     :     0.002263  d :     0.015765
      dxz     :     0.002369
      dyz     :     0.003759
      dx2y2   :     0.002575
      dxy     :     0.004799
 10 C s       :     2.970289  s :     2.970289
      pz      :     0.938128  p :     2.684566
      px      :     0.900753
      py      :     0.845685
      dz2     :     0.016426  d :     0.063015
      dxz     :     0.006726
      dyz     :     0.011400
      dx2y2   :     0.011292
      dxy     :     0.017171
 11 C s       :     3.281753  s :     3.281753
      pz      :     1.063689  p :     3.138260
      px      :     1.045451
      py      :     1.029119
      dz2     :     0.010946  d :     0.048444
      dxz     :     0.009385
      dyz     :     0.009934
      dx2y2   :     0.007856
      dxy     :     0.010322
 12 C s       :     3.044943  s :     3.044943
      pz      :     0.870486  p :     2.546498
      px      :     0.835373
      py      :     0.840639
      dz2     :     0.031302  d :     0.137983
      dxz     :     0.046729
      dyz     :     0.034944
      dx2y2   :     0.013516
      dxy     :     0.011493
 13 O s       :     3.738679  s :     3.738679
      pz      :     1.326950  p :     4.494723
      px      :     1.645145
      py      :     1.522628
      dz2     :     0.007902  d :     0.018558
      dxz     :     0.004328
      dyz     :     0.005502
      dx2y2   :     0.000406
      dxy     :     0.000419
 14 O s       :     3.733388  s :     3.733388
      pz      :     1.606867  p :     4.559862
      px      :     1.377157
      py      :     1.575838
      dz2     :     0.002710  d :     0.016361
      dxz     :     0.005619
      dyz     :     0.003332
      dx2y2   :     0.002231
      dxy     :     0.002469
 15 C s       :     3.095788  s :     3.095788
      pz      :     1.018244  p :     2.814221
      px      :     0.889363
      py      :     0.906615
      dz2     :     0.012816  d :     0.067471
      dxz     :     0.012213
      dyz     :     0.009377
      dx2y2   :     0.014280
      dxy     :     0.018784
 16 C s       :     2.999574  s :     2.999574
      pz      :     1.021369  p :     2.997179
      px      :     1.023791
      py      :     0.952019
      dz2     :     0.005641  d :     0.026656
      dxz     :     0.006173
      dyz     :     0.003979
      dx2y2   :     0.004843
      dxy     :     0.006020
 17 H s       :     0.924211  s :     0.924211
      pz      :     0.009055  p :     0.024505
      px      :     0.011187
      py      :     0.004262
 18 H s       :     0.939731  s :     0.939731
      pz      :     0.013436  p :     0.023901
      px      :     0.005725
      py      :     0.004739
 19 H s       :     0.936104  s :     0.936104
      pz      :     0.006185  p :     0.023942
      px      :     0.009711
      py      :     0.008046
 20 C s       :     2.992399  s :     2.992399
      pz      :     0.999423  p :     2.981527
      px      :     0.959779
      py      :     1.022324
      dz2     :     0.007642  d :     0.026791
      dxz     :     0.005823
      dyz     :     0.002490
      dx2y2   :     0.004935
      dxy     :     0.005902
 21 H s       :     0.939613  s :     0.939613
      pz      :     0.005792  p :     0.023953
      px      :     0.009985
      py      :     0.008175
 22 H s       :     0.934169  s :     0.934169
      pz      :     0.004705  p :     0.023638
      px      :     0.005206
      py      :     0.013727
 23 H s       :     0.940287  s :     0.940287
      pz      :     0.013580  p :     0.024146
      px      :     0.004918
      py      :     0.005649
 24 H s       :     0.933445  s :     0.933445
      pz      :     0.014328  p :     0.021081
      px      :     0.003039
      py      :     0.003714
 25 C s       :     2.935910  s :     2.935910
      pz      :     0.919237  p :     2.930069
      px      :     0.997021
      py      :     1.013812
      dz2     :     0.007433  d :     0.027461
      dxz     :     0.004354
      dyz     :     0.005472
      dx2y2   :     0.004969
      dxy     :     0.005234
 26 H s       :     0.955028  s :     0.955028
      pz      :     0.005273  p :     0.023663
      px      :     0.008986
      py      :     0.009404
 27 H s       :     0.948731  s :     0.948731
      pz      :     0.004735  p :     0.024233
      px      :     0.013830
      py      :     0.005668
 28 H s       :     0.942719  s :     0.942719
      pz      :     0.005437  p :     0.024404
      px      :     0.006004
      py      :     0.012963
 29 C s       :     2.992438  s :     2.992438
      pz      :     1.010584  p :     2.940761
      px      :     1.002420
      py      :     0.927757
      dz2     :     0.008944  d :     0.027890
      dxz     :     0.002139
      dyz     :     0.004037
      dx2y2   :     0.005808
      dxy     :     0.006962
 30 H s       :     0.928228  s :     0.928228
      pz      :     0.014910  p :     0.023975
      px      :     0.005061
      py      :     0.004003
 31 H s       :     0.939967  s :     0.939967
      pz      :     0.005997  p :     0.023649
      px      :     0.008712
      py      :     0.008940
 32 H s       :     0.943636  s :     0.943636
      pz      :     0.005600  p :     0.023922
      px      :     0.013484
      py      :     0.004838
 33 H s       :     0.951087  s :     0.951087
      pz      :     0.014737  p :     0.022214
      px      :     0.004009
      py      :     0.003468
 34 H s       :     0.958798  s :     0.958798
      pz      :     0.004416  p :     0.020681
      px      :     0.007415
      py      :     0.008850
 35 H s       :     0.967776  s :     0.967776
      pz      :     0.004226  p :     0.020268
      px      :     0.013913
      py      :     0.002129


                     *******************************
                     * LOEWDIN POPULATION ANALYSIS *
                     *******************************

----------------------
LOEWDIN ATOMIC CHARGES
----------------------
   0 C :   -0.074859
   1 H :    0.027797
   2 H :    0.028841
   3 H :    0.025717
   4 C :    0.057276
   5 C :   -0.059657
   6 H :    0.028276
   7 H :    0.025423
   8 H :    0.026975
   9 O :   -0.166992
  10 C :    0.085182
  11 C :   -0.106548
  12 C :    0.095344
  13 O :   -0.194309
  14 O :   -0.077524
  15 C :    0.071375
  16 C :   -0.064900
  17 H :    0.031385
  18 H :    0.026963
  19 H :    0.034308
  20 C :   -0.060051
  21 H :    0.032936
  22 H :    0.030659
  23 H :    0.029050
  24 H :    0.021666
  25 C :   -0.042160
  26 H :    0.026799
  27 H :    0.023487
  28 H :    0.026449
  29 C :   -0.030801
  30 H :    0.031058
  31 H :    0.027663
  32 H :    0.027679
  33 H :    0.012010
  34 H :    0.021484
  35 H :    0.001998

-------------------------------
LOEWDIN REDUCED ORBITAL CHARGES
-------------------------------
  0 C s       :     2.834454  s :     2.834454
      pz      :     1.034610  p :     3.170414
      px      :     1.074077
      py      :     1.061728
      dz2     :     0.019110  d :     0.069991
      dxz     :     0.014863
      dyz     :     0.011110
      dx2y2   :     0.018302
      dxy     :     0.006607
  1 H s       :     0.904455  s :     0.904455
      pz      :     0.016012  p :     0.067748
      px      :     0.038044
      py      :     0.013692
  2 H s       :     0.903400  s :     0.903400
      pz      :     0.014129  p :     0.067758
      px      :     0.014484
      py      :     0.039146
  3 H s       :     0.902786  s :     0.902786
      pz      :     0.025332  p :     0.071497
      px      :     0.025371
      py      :     0.020793
  4 C s       :     2.843013  s :     2.843013
      pz      :     1.052013  p :     2.940002
      px      :     1.033265
      py      :     0.854724
      dz2     :     0.034713  d :     0.159709
      dxz     :     0.015224
      dyz     :     0.037369
      dx2y2   :     0.042523
      dxy     :     0.029881
  5 C s       :     2.834686  s :     2.834686
      pz      :     1.046404  p :     3.153933
      px      :     1.060604
      py      :     1.046925
      dz2     :     0.020712  d :     0.071038
      dxz     :     0.008240
      dyz     :     0.012831
      dx2y2   :     0.018346
      dxy     :     0.010909
  6 H s       :     0.904269  s :     0.904269
      pz      :     0.014384  p :     0.067455
      px      :     0.040059
      py      :     0.013012
  7 H s       :     0.907702  s :     0.907702
      pz      :     0.013346  p :     0.066876
      px      :     0.016748
      py      :     0.036783
  8 H s       :     0.905766  s :     0.905766
      pz      :     0.037345  p :     0.067259
      px      :     0.013365
      py      :     0.016549
  9 O s       :     3.451435  s :     3.451435
      pz      :     1.723646  p :     4.686413
      px      :     1.710103
      py      :     1.252664
      dz2     :     0.003877  d :     0.029144
      dxz     :     0.003013
      dyz     :     0.007475
      dx2y2   :     0.005793
      dxy     :     0.008985
 10 C s       :     2.836882  s :     2.836882
      pz      :     1.014449  p :     2.930374
      px      :     0.997149
      py      :     0.918776
      dz2     :     0.040546  d :     0.147561
      dxz     :     0.015308
      dyz     :     0.024691
      dx2y2   :     0.026411
      dxy     :     0.040605
 11 C s       :     2.857965  s :     2.857965
      pz      :     1.049668  p :     3.134885
      px      :     1.048971
      py      :     1.036246
      dz2     :     0.027925  d :     0.113699
      dxz     :     0.019974
      dyz     :     0.021834
      dx2y2   :     0.019174
      dxy     :     0.024792
 12 C s       :     2.849796  s :     2.849796
      pz      :     0.996884  p :     2.750574
      px      :     0.889717
      py      :     0.863973
      dz2     :     0.073506  d :     0.304286
      dxz     :     0.105684
      dyz     :     0.074534
      dx2y2   :     0.026273
      dxy     :     0.024289
 13 O s       :     3.534427  s :     3.534427
      pz      :     1.462501  p :     4.628251
      px      :     1.635627
      py      :     1.530123
      dz2     :     0.015711  d :     0.031631
      dxz     :     0.006237
      dyz     :     0.008568
      dx2y2   :     0.000552
      dxy     :     0.000563
 14 O s       :     3.436877  s :     3.436877
      pz      :     1.638833  p :     4.608555
      px      :     1.402561
      py      :     1.567162
      dz2     :     0.004659  d :     0.032092
      dxz     :     0.011187
      dyz     :     0.005237
      dx2y2   :     0.004794
      dxy     :     0.006214
 15 C s       :     2.847433  s :     2.847433
      pz      :     1.052325  p :     2.931173
      px      :     0.918601
      py      :     0.960247
      dz2     :     0.030061  d :     0.150019
      dxz     :     0.029324
      dyz     :     0.018507
      dx2y2   :     0.032851
      dxy     :     0.039276
 16 C s       :     2.833923  s :     2.833923
      pz      :     1.070726  p :     3.160287
      px      :     1.068287
      py      :     1.021275
      dz2     :     0.015338  d :     0.070690
      dxz     :     0.016239
      dyz     :     0.008993
      dx2y2   :     0.013624
      dxy     :     0.016496
 17 H s       :     0.899791  s :     0.899791
      pz      :     0.024197  p :     0.068824
      px      :     0.030923
      py      :     0.013704
 18 H s       :     0.905288  s :     0.905288
      pz      :     0.037016  p :     0.067749
      px      :     0.015488
      py      :     0.015245
 19 H s       :     0.898226  s :     0.898226
      pz      :     0.016032  p :     0.067466
      px      :     0.027077
      py      :     0.024357
 20 C s       :     2.833293  s :     2.833293
      pz      :     1.053869  p :     3.155585
      px      :     1.033015
      py      :     1.068700
      dz2     :     0.019360  d :     0.071173
      dxz     :     0.016761
      dyz     :     0.006155
      dx2y2   :     0.013661
      dxy     :     0.015235
 21 H s       :     0.899927  s :     0.899927
      pz      :     0.016054  p :     0.067137
      px      :     0.028952
      py      :     0.022131
 22 H s       :     0.902125  s :     0.902125
      pz      :     0.013060  p :     0.067215
      px      :     0.015602
      py      :     0.038553
 23 H s       :     0.903375  s :     0.903375
      pz      :     0.038393  p :     0.067575
      px      :     0.014429
      py      :     0.014753
 24 H s       :     0.908967  s :     0.908967
      pz      :     0.042933  p :     0.069367
      px      :     0.012837
      py      :     0.013597
 25 C s       :     2.824325  s :     2.824325
      pz      :     1.005165  p :     3.144078
      px      :     1.067180
      py      :     1.071733
      dz2     :     0.021961  d :     0.073757
      dxz     :     0.011250
      dyz     :     0.013984
      dx2y2   :     0.013101
      dxy     :     0.013459
 26 H s       :     0.906410  s :     0.906410
      pz      :     0.016829  p :     0.066791
      px      :     0.024390
      py      :     0.025572
 27 H s       :     0.908241  s :     0.908241
      pz      :     0.015875  p :     0.068272
      px      :     0.037706
      py      :     0.014691
 28 H s       :     0.905115  s :     0.905115
      pz      :     0.017900  p :     0.068436
      px      :     0.014960
      py      :     0.035576
 29 C s       :     2.828833  s :     2.828833
      pz      :     1.062367  p :     3.128289
      px      :     1.062497
      py      :     1.003426
      dz2     :     0.023025  d :     0.073679
      dxz     :     0.005571
      dyz     :     0.011113
      dx2y2   :     0.015815
      dxy     :     0.018155
 30 H s       :     0.900562  s :     0.900562
      pz      :     0.042265  p :     0.068380
      px      :     0.013148
      py      :     0.012967
 31 H s       :     0.905128  s :     0.905128
      pz      :     0.016207  p :     0.067209
      px      :     0.023922
      py      :     0.027080
 32 H s       :     0.905074  s :     0.905074
      pz      :     0.015019  p :     0.067247
      px      :     0.037170
      py      :     0.015059
 33 H s       :     0.919339  s :     0.919339
      pz      :     0.044950  p :     0.068652
      px      :     0.012658
      py      :     0.011043
 34 H s       :     0.914815  s :     0.914815
      pz      :     0.012719  p :     0.063700
      px      :     0.023129
      py      :     0.027853
 35 H s       :     0.931217  s :     0.931217
      pz      :     0.014967  p :     0.066785
      px      :     0.041609
      py      :     0.010209


                      *****************************
                      * MAYER POPULATION ANALYSIS *
                      *****************************

  NA   - Mulliken gross atomic population
  ZA   - Total nuclear charge
  QA   - Mulliken gross atomic charge
  VA   - Mayer's total valence
  BVA  - Mayer's bonded valence
  FA   - Mayer's free valence

  ATOM       NA         ZA         QA         VA         BVA        FA
  0 C      6.0395     6.0000    -0.0395     3.9407     3.9407    -0.0000
  1 H      0.9675     1.0000     0.0325     1.0001     1.0001     0.0000
  2 H      0.9725     1.0000     0.0275     0.9958     0.9958     0.0000
  3 H      0.9453     1.0000     0.0547     1.0195     1.0195    -0.0000
  4 C      5.9834     6.0000     0.0166     4.1420     4.1420    -0.0000
[...]
      px      :     0.003365
      py      :     0.004095
 25 C s       :     2.955861  s :     2.955861
      pz      :     0.918072  p :     2.929606
      px      :     0.995376
      py      :     1.016159
      dz2     :     0.007325  d :     0.027006
      dxz     :     0.004385
      dyz     :     0.005500
      dx2y2   :     0.004591
      dxy     :     0.005205
 26 H s       :     0.949716  s :     0.949716
      pz      :     0.005081  p :     0.022927
      px      :     0.009388
      py      :     0.008458
 27 H s       :     0.947628  s :     0.947628
      pz      :     0.004597  p :     0.023495
      px      :     0.013016
      py      :     0.005882
 28 H s       :     0.937469  s :     0.937469
      pz      :     0.005275  p :     0.023496
      px      :     0.005460
      py      :     0.012761
 29 C s       :     3.016492  s :     3.016492
      pz      :     1.010471  p :     2.939379
      px      :     1.004451
      py      :     0.924457
      dz2     :     0.008577  d :     0.027289
      dxz     :     0.002005
      dyz     :     0.004156
      dx2y2   :     0.005634
      dxy     :     0.006917
 30 H s       :     0.922512  s :     0.922512
      pz      :     0.014583  p :     0.023270
      px      :     0.004911
      py      :     0.003776
 31 H s       :     0.937116  s :     0.937116
      pz      :     0.005957  p :     0.022969
      px      :     0.008488
      py      :     0.008523
 32 H s       :     0.940136  s :     0.940136
      pz      :     0.005236  p :     0.023224
      px      :     0.013194
      py      :     0.004794
 33 H s       :     0.949001  s :     0.949001
      pz      :     0.014555  p :     0.021913
      px      :     0.003909
      py      :     0.003449
 34 H s       :     0.956696  s :     0.956696
      pz      :     0.004280  p :     0.020581
      px      :     0.007341
      py      :     0.008961
 35 H s       :     0.966778  s :     0.966778
      pz      :     0.004238  p :     0.020158
      px      :     0.013873
      py      :     0.002047


                     *******************************
                     * LOEWDIN POPULATION ANALYSIS *
                     *******************************

----------------------
LOEWDIN ATOMIC CHARGES
----------------------
   0 C :   -0.078638
   1 H :    0.029692
   2 H :    0.030753
   3 H :    0.028166
   4 C :    0.052102
   5 C :   -0.064287
   6 H :    0.029959
   7 H :    0.027824
   8 H :    0.029626
   9 O :   -0.163670
  10 C :    0.081933
  11 C :   -0.107862
  12 C :    0.096979
  13 O :   -0.194162
  14 O :   -0.083122
  15 C :    0.070134
  16 C :   -0.070104
  17 H :    0.033823
  18 H :    0.028309
  19 H :    0.036433
  20 C :   -0.064695
  21 H :    0.034543
  22 H :    0.033129
  23 H :    0.030631
  24 H :    0.022490
  25 C :   -0.047078
  26 H :    0.029202
  27 H :    0.025436
  28 H :    0.028867
  29 C :   -0.036317
  30 H :    0.033484
  31 H :    0.028943
  32 H :    0.029132
  33 H :    0.012266
  34 H :    0.022711
  35 H :    0.003368

-------------------------------
LOEWDIN REDUCED ORBITAL CHARGES
-------------------------------
  0 C s       :     2.843319  s :     2.843319
      pz      :     1.035748  p :     3.166264
      px      :     1.071043
      py      :     1.059473
      dz2     :     0.018872  d :     0.069056
      dxz     :     0.013084
      dyz     :     0.012854
      dx2y2   :     0.016436
      dxy     :     0.007810
  1 H s       :     0.904979  s :     0.904979
      pz      :     0.014769  p :     0.065329
      px      :     0.038235
      py      :     0.012326
  2 H s       :     0.903747  s :     0.903747
      pz      :     0.013350  p :     0.065500
      px      :     0.015274
      py      :     0.036875
  3 H s       :     0.903029  s :     0.903029
      pz      :     0.025684  p :     0.068805
      px      :     0.021331
      py      :     0.021791
  4 C s       :     2.841995  s :     2.841995
      pz      :     1.053821  p :     2.943927
      px      :     1.032516
      py      :     0.857591
      dz2     :     0.035020  d :     0.161976
      dxz     :     0.015618
      dyz     :     0.038260
      dx2y2   :     0.042738
      dxy     :     0.030340
  5 C s       :     2.843599  s :     2.843599
      pz      :     1.043750  p :     3.150798
      px      :     1.060054
      py      :     1.046994
      dz2     :     0.020190  d :     0.069890
      dxz     :     0.007975
      dyz     :     0.013276
      dx2y2   :     0.018092
      dxy     :     0.010358
  6 H s       :     0.904889  s :     0.904889
      pz      :     0.013262  p :     0.065152
      px      :     0.039659
      py      :     0.012231
  7 H s       :     0.907473  s :     0.907473
      pz      :     0.012544  p :     0.064703
      px      :     0.015959
      py      :     0.036199
  8 H s       :     0.905232  s :     0.905232
      pz      :     0.036142  p :     0.065142
      px      :     0.012720
      py      :     0.016280
  9 O s       :     3.446010  s :     3.446010
      pz      :     1.723146  p :     4.688251
      px      :     1.708128
      py      :     1.256978
      dz2     :     0.003977  d :     0.029408
      dxz     :     0.003041
      dyz     :     0.007346
      dx2y2   :     0.005816
      dxy     :     0.009229
 10 C s       :     2.838983  s :     2.838983
      pz      :     1.011995  p :     2.930281
      px      :     0.997762
      py      :     0.920525
      dz2     :     0.041141  d :     0.148803
      dxz     :     0.015399
      dyz     :     0.024998
      dx2y2   :     0.026224
      dxy     :     0.041040
 11 C s       :     2.860257  s :     2.860257
      pz      :     1.048993  p :     3.134746
      px      :     1.049386
      py      :     1.036367
      dz2     :     0.027814  d :     0.112858
      dxz     :     0.019862
      dyz     :     0.021689
      dx2y2   :     0.018995
      dxy     :     0.024499
 12 C s       :     2.852432  s :     2.852432
      pz      :     1.003234  p :     2.748807
      px      :     0.888024
      py      :     0.857548
      dz2     :     0.073886  d :     0.301783
      dxz     :     0.104922
      dyz     :     0.078643
      dx2y2   :     0.022676
      dxy     :     0.021656
 13 O s       :     3.535384  s :     3.535384
      pz      :     1.466147  p :     4.627113
      px      :     1.627036
      py      :     1.533930
      dz2     :     0.016405  d :     0.031664
      dxz     :     0.006399
      dyz     :     0.008099
      dx2y2   :     0.000382
      dxy     :     0.000379
 14 O s       :     3.439742  s :     3.439742
      pz      :     1.637804  p :     4.611805
      px      :     1.419397
      py      :     1.554604
      dz2     :     0.004670  d :     0.031575
      dxz     :     0.010681
      dyz     :     0.005655
      dx2y2   :     0.004363
      dxy     :     0.006206
 15 C s       :     2.847924  s :     2.847924
      pz      :     1.051858  p :     2.931390
      px      :     0.918606
      py      :     0.960925
      dz2     :     0.027315  d :     0.150552
      dxz     :     0.032090
      dyz     :     0.020213
      dx2y2   :     0.030952
      dxy     :     0.039983
 16 C s       :     2.842196  s :     2.842196
      pz      :     1.068427  p :     3.158370
      px      :     1.066581
      py      :     1.023361
      dz2     :     0.012474  d :     0.069538
      dxz     :     0.017756
      dyz     :     0.010290
      dx2y2   :     0.011959
      dxy     :     0.017058
 17 H s       :     0.898769  s :     0.898769
      pz      :     0.025617  p :     0.067408
      px      :     0.028997
      py      :     0.012794
 18 H s       :     0.906012  s :     0.906012
      pz      :     0.034161  p :     0.065680
      px      :     0.015892
      py      :     0.015627
 19 H s       :     0.898266  s :     0.898266
      pz      :     0.015627  p :     0.065300
      px      :     0.025820
      py      :     0.023854
 20 C s       :     2.842154  s :     2.842154
      pz      :     1.048413  p :     3.152457
      px      :     1.036044
      py      :     1.068000
      dz2     :     0.017778  d :     0.070084
      dxz     :     0.018173
      dyz     :     0.006821
      dx2y2   :     0.011766
      dxy     :     0.015546
 21 H s       :     0.900508  s :     0.900508
      pz      :     0.014711  p :     0.064949
      px      :     0.028514
      py      :     0.021724
 22 H s       :     0.901639  s :     0.901639
      pz      :     0.012493  p :     0.065233
      px      :     0.015467
      py      :     0.037273
 23 H s       :     0.903948  s :     0.903948
      pz      :     0.036335  p :     0.065421
      px      :     0.014459
      py      :     0.014626
 24 H s       :     0.909071  s :     0.909071
      pz      :     0.040441  p :     0.068440
      px      :     0.013548
      py      :     0.014450
 25 C s       :     2.833992  s :     2.833992
      pz      :     1.004324  p :     3.141082
      px      :     1.065379
      py      :     1.071379
      dz2     :     0.021388  d :     0.072004
      dxz     :     0.011310
      dyz     :     0.014000
      dx2y2   :     0.011978
      dxy     :     0.013329
 26 H s       :     0.906082  s :     0.906082
      pz      :     0.016082  p :     0.064716
      px      :     0.025662
      py      :     0.022972
 27 H s       :     0.908719  s :     0.908719
      pz      :     0.015171  p :     0.065845
      px      :     0.035458
      py      :     0.015217
 28 H s       :     0.904813  s :     0.904813
      pz      :     0.017357  p :     0.066320
      px      :     0.013358
      py      :     0.035606
 29 C s       :     2.839489  s :     2.839489
      pz      :     1.061605  p :     3.125170
      px      :     1.062234
      py      :     1.001331
      dz2     :     0.021992  d :     0.071658
      dxz     :     0.005185
      dyz     :     0.011383
      dx2y2   :     0.015380
      dxy     :     0.017719
 30 H s       :     0.899993  s :     0.899993
      pz      :     0.041704  p :     0.066522
      px      :     0.012649
      py      :     0.012170
 31 H s       :     0.905923  s :     0.905923
      pz      :     0.016049  p :     0.065133
      px      :     0.023249
      py      :     0.025835
 32 H s       :     0.905664  s :     0.905664
      pz      :     0.013882  p :     0.065204
      px      :     0.036585
      py      :     0.014738
 33 H s       :     0.920416  s :     0.920416
      pz      :     0.044433  p :     0.067319
      px      :     0.012181
      py      :     0.010705
 34 H s       :     0.914628  s :     0.914628
      pz      :     0.012115  p :     0.062662
      px      :     0.022663
      py      :     0.027883
 35 H s       :     0.930817  s :     0.930817
      pz      :     0.014707  p :     0.065815
      px      :     0.041327
      py      :     0.009780


                      *****************************
                      * MAYER POPULATION ANALYSIS *
                      *****************************

  NA   - Mulliken gross atomic population
  ZA   - Total nuclear charge
  QA   - Mulliken gross atomic charge
  VA   - Mayer's total valence
  BVA  - Mayer's bonded valence
  FA   - Mayer's free valence

  ATOM       NA         ZA         QA         VA         BVA        FA
  0 C      6.0546     6.0000    -0.0546     3.9433     3.9433    -0.0000
  1 H      0.9637     1.0000     0.0363     0.9976     0.9976     0.0000
  2 H      0.9679     1.0000     0.0321     0.9935     0.9935     0.0000
  3 H      0.9435     1.0000     0.0565     1.0134     1.0134    -0.0000
  4 C      5.9740     6.0000     0.0260     4.1368     4.1368     0.0000
  5 C      6.0087     6.0000    -0.0087     3.9480     3.9480     0.0000
  6 H      0.9628     1.0000     0.0372     1.0013     1.0013    -0.0000
  7 H      0.9728     1.0000     0.0272     0.9909     0.9909     0.0000
  8 H      0.9615     1.0000     0.0385     0.9987     0.9987    -0.0000
  9 O      8.3970     8.0000    -0.3970     2.0637     2.0637     0.0000
 10 C      5.7283     6.0000     0.2717     3.9297     3.9297     0.0000
 11 C      6.4562     6.0000    -0.4562     3.9629     3.9629    -0.0000
 12 C      5.7283     6.0000     0.2717     4.1367     4.1367     0.0000
 13 O      8.2494     8.0000    -0.2494     2.2435     2.2435     0.0000
 14 O      8.3137     8.0000    -0.3137     2.1689     2.1689    -0.0000
 15 C      5.9639     6.0000     0.0361     4.1002     4.1002     0.0000
 16 C      6.0428     6.0000    -0.0428     3.9623     3.9623     0.0000
 17 H      0.9442     1.0000     0.0558     1.0115     1.0115     0.0000
 18 H      0.9589     1.0000     0.0411     0.9939     0.9939     0.0000
 19 H      0.9564     1.0000     0.0436     0.9921     0.9921     0.0000
 20 C      6.0156     6.0000    -0.0156     3.9526     3.9526    -0.0000
 21 H      0.9605     1.0000     0.0395     0.9925     0.9925    -0.0000
 22 H      0.9535     1.0000     0.0465     0.9946     0.9946    -0.0000
 23 H      0.9613     1.0000     0.0387     0.9973     0.9973    -0.0000
 24 H      0.9557     1.0000     0.0443     0.9964     0.9964     0.0000
 25 C      5.9125     6.0000     0.0875     3.9057     3.9057     0.0000
 26 H      0.9726     1.0000     0.0274     0.9957     0.9957    -0.0000
 27 H      0.9711     1.0000     0.0289     1.0017     1.0017    -0.0000
 28 H      0.9610     1.0000     0.0390     1.0098     1.0098     0.0000
 29 C      5.9832     6.0000     0.0168     3.9331     3.9331    -0.0000
 30 H      0.9458     1.0000     0.0542     1.0026     1.0026     0.0000
 31 H      0.9601     1.0000     0.0399     0.9957     0.9957     0.0000
 32 H      0.9634     1.0000     0.0366     0.9922     0.9922    -0.0000
 33 H      0.9709     1.0000     0.0291     1.0056     1.0056     0.0000
 34 H      0.9773     1.0000     0.0227     0.9964     0.9964    -0.0000
 35 H      0.9869     1.0000     0.0131     0.9858     0.9858    -0.0000

  Mayer bond orders larger than 0.100000
B(  0-C ,  1-H ) :   0.9607 B(  0-C ,  2-H ) :   0.9615 B(  0-C ,  3-H ) :   0.9589 
B(  0-C ,  4-C ) :   1.0641 B(  4-C ,  5-C ) :   1.0668 B(  4-C ,  9-O ) :   0.9645 
B(  4-C , 35-H ) :   0.9203 B(  5-C ,  6-H ) :   0.9675 B(  5-C ,  7-H ) :   0.9660 
B(  5-C ,  8-H ) :   0.9684 B(  9-O , 10-C ) :   1.0352 B( 10-C , 11-C ) :   0.9797 
B( 10-C , 33-H ) :   0.9490 B( 10-C , 34-H ) :   0.9560 B( 11-C , 12-C ) :   0.8749 
B( 11-C , 25-C ) :   1.0266 B( 11-C , 29-C ) :   1.0313 B( 12-C , 13-O ) :   2.0401 
B( 12-C , 14-O ) :   1.1998 B( 14-O , 15-C ) :   0.8626 B( 15-C , 16-C ) :   1.0848 
B( 15-C , 20-C ) :   1.0685 B( 15-C , 24-H ) :   0.9400 B( 16-C , 17-H ) :   0.9613 
B( 16-C , 18-H ) :   0.9579 B( 16-C , 19-H ) :   0.9661 B( 20-C , 21-H ) :   0.9672 
B( 20-C , 22-H ) :   0.9694 B( 20-C , 23-H ) :   0.9648 B( 25-C , 26-H ) :   0.9639 
B( 25-C , 27-H ) :   0.9627 B( 25-C , 28-H ) :   0.9645 B( 29-C , 30-H ) :   0.9672 
B( 29-C , 31-H ) :   0.9705 B( 29-C , 32-H ) :   0.9684 

-------
TIMINGS
-------

Total SCF time: 0 days 0 hours 2 min 53 sec 

Total time                  ....     173.136 sec
Sum of individual times     ....     172.866 sec  ( 99.8%)

Fock matrix formation       ....     169.165 sec  ( 97.7%)
  XC integration            ....       7.116 sec  (  4.2% of F)
    Basis function eval.    ....       2.162 sec  ( 30.4% of XC)
    Density eval.           ....       1.515 sec  ( 21.3% of XC)
    XC-Functional eval.     ....       1.515 sec  ( 21.3% of XC)
    XC-Potential eval.      ....       1.727 sec  ( 24.3% of XC)
Diagonalization             ....       0.015 sec  (  0.0%)
Density matrix formation    ....       0.011 sec  (  0.0%)
Population analysis         ....       0.011 sec  (  0.0%)
Initial guess               ....       0.014 sec  (  0.0%)
Orbital Transformation      ....       0.000 sec  (  0.0%)
Orbital Orthonormalization  ....       0.011 sec  (  0.0%)
DIIS solution               ....       0.003 sec  (  0.0%)
SOSCF solution              ....       0.045 sec  (  0.0%)
Grid generation             ....       3.601 sec  (  2.1%)


-------------------------------------------------------------------------------
                          DFT DISPERSION CORRECTION                            
                                                                               
                              DFTD3 V3.1  Rev 1                                
                              USING zero damping                               
-------------------------------------------------------------------------------
The omegaB97X-D3 functional is recognized. Fit by Chai et al.
Active option DFTDOPT                   ...         3   

molecular C6(AA) [au] = 9233.822606 


            DFT-D V3
 parameters
 s6 scaling factor         :     1.0000 
 rs6 scaling factor        :     1.2810 
 s8 scaling factor         :     1.0000 
 rs8 scaling factor        :     1.0940 
 Damping factor alpha6     :    14.0000 
 Damping factor alpha8     :    16.0000 
 ad hoc parameters k1-k3   :    16.0000     1.3333    -4.0000 

 Edisp/kcal,au: -11.445351138921  -0.018239326084 
 E6   /kcal   :  -5.116586992 
 E8   /kcal   :  -6.328764147 
 % E8         :  55.295500072 

-------------------------   ----------------
Dispersion correction           -0.018239326
-------------------------   ----------------


-------------------------   --------------------
FINAL SINGLE POINT ENERGY      -657.476260152795
-------------------------   --------------------

                                *** OPTIMIZATION RUN DONE ***

                            ***************************************
                            *     ORCA property calculations      *
                            ***************************************

                                    ---------------------
                                    Active property flags
                                    ---------------------
   (+) Dipole Moment


------------------------------------------------------------------------------
                       ORCA ELECTRIC PROPERTIES CALCULATION
------------------------------------------------------------------------------

Dipole Moment Calculation                       ... on
Quadrupole Moment Calculation                   ... off
Polarizability Calculation                      ... off
GBWName                                         ... 023514586.gbw
Electron density file                           ... 023514586.scfp
The origin for moment calculation is the CENTER OF MASS  = (-0.015336, -0.015126  0.011480)

-------------
DIPOLE MOMENT
-------------
                                X             Y             Z
Electronic contribution:     -0.10784      -4.69761       3.22961
Nuclear contribution   :     -0.57716       4.86587      -3.55924
                        -----------------------------------------
Total Dipole Moment    :     -0.68500       0.16826      -0.32962
                        -----------------------------------------
Magnitude (a.u.)       :      0.77858
Magnitude (Debye)      :      1.97900



--------------------
Rotational spectrum 
--------------------
 
Rotational constants in cm-1:     0.026447     0.018041     0.013829 
Rotational constants in MHz :   792.848531   540.857646   414.586841 

 Dipole components along the rotational axes: 
x,y,z [a.u.] :    -0.685880    -0.156738    -0.333458 
x,y,z [Debye]:    -1.743368    -0.398396    -0.847582 

 

Timings for individual modules:

Sum of individual times         ...     3938.493 sec (=  65.642 min)
GTO integral calculation        ...        3.504 sec (=   0.058 min)   0.1 %
SCF iterations                  ...     2646.413 sec (=  44.107 min)  67.2 %
SCF Gradient evaluation         ...     1286.393 sec (=  21.440 min)  32.7 %
Geometry relaxation             ...        2.184 sec (=   0.036 min)   0.1 %
                             ****ORCA TERMINATED NORMALLY****
TOTAL RUN TIME: 0 days 1 hours 5 minutes 40 seconds 850 msec
