
                                 *****************
                                 * O   R   C   A *
                                 *****************

           --- An Ab Initio, DFT and Semiempirical electronic structure package ---

                  #######################################################
                  #                        -***-                        #
                  #          Department of theory and spectroscopy      #
                  #               Directorship: Frank Neese             #
                  #        Max Planck Institute fuer Kohlenforschung    #
                  #                Kaiser Wilhelm Platz 1               #
                  #                 D-45470 Muelheim/Ruhr               #
                  #                      Germany                        #
                  #                                                     #
                  #                  All rights reserved                #
                  #                        -***-                        #
                  #######################################################


                         Program Version 4.2.0 -  RELEASE  -


 With contributions from (in alphabetic order):
   Daniel Aravena         : Magnetic Suceptibility
   Michael Atanasov       : Ab Initio Ligand Field Theory (pilot matlab implementation)
   Alexander A. Auer      : GIAO ZORA, VPT2
   Ute Becker             : Parallelization
   Giovanni Bistoni       : ED, misc. LED, open-shell LED, HFLED
   Martin Brehm           : Molecular dynamics
   Dmytro Bykov           : SCF Hessian
   Vijay G. Chilkuri      : MRCI spin determinant printing, contributions to CSF-ICE
   Dipayan Datta          : RHF DLPNO-CCSD density
   Achintya Kumar Dutta   : EOM-CC, STEOM-CC
   Dmitry Ganyushin       : Spin-Orbit,Spin-Spin,Magnetic field MRCI
   Miquel Garcia          : C-PCM Hessian, Gaussian charge scheme
   Yang Guo               : DLPNO-NEVPT2, CIM, IAO-localization
   Andreas Hansen         : Spin unrestricted coupled pair/coupled cluster methods
   Benjamin Helmich-Paris : CASSCF linear response (MC-RPA)
   Lee Huntington         : MR-EOM, pCC
   Robert Izsak           : Overlap fitted RIJCOSX, COSX-SCS-MP3, EOM
   Christian Kollmar      : KDIIS, OOCD, Brueckner-CCSD(T), CCSD density
   Simone Kossmann        : Meta GGA functionals, TD-DFT gradient, OOMP2, MP2 Hessian
   Martin Krupicka        : AUTO-CI
   Lucas Lang             : DCDCAS
   Dagmar Lenk            : GEPOL surface, SMD
   Dimitrios Liakos       : Extrapolation schemes; Compound Job, initial MDCI parallelization
   Dimitrios Manganas     : Further ROCIS development; embedding schemes
   Dimitrios Pantazis     : SARC Basis sets
   Taras Petrenko         : DFT Hessian,TD-DFT gradient, ASA, ECA, R-Raman, ABS, FL, XAS/XES, NRVS
   Peter Pinski           : DLPNO-MP2, DLPNO-MP2 Gradient
   Christoph Reimann      : Effective Core Potentials
   Marius Retegan         : Local ZFS, SOC
   Christoph Riplinger    : Optimizer, TS searches, QM/MM, DLPNO-CCSD(T), (RO)-DLPNO pert. Triples
   Tobias Risthaus        : Range-separated hybrids, TD-DFT gradient, RPA, STAB
   Michael Roemelt        : Original ROCIS implementation
   Masaaki Saitow         : Open-shell DLPNO-CCSD energy and density
   Barbara Sandhoefer     : DKH picture change effects
   Avijit Sen             : IP-ROCIS
   Kantharuban Sivalingam : CASSCF convergence, NEVPT2, FIC-MRCI
   Bernardo de Souza      : ESD, SOC TD-DFT
   Georgi Stoychev        : AutoAux, RI-MP2 NMR
   Willem Van den Heuvel  : Paramagnetic NMR
   Boris Wezisla          : Elementary symmetry handling
   Frank Wennmohs         : Technical directorship


 We gratefully acknowledge several colleagues who have allowed us to
 interface, adapt or use parts of their codes:
   Stefan Grimme, W. Hujo, H. Kruse,             : VdW corrections, initial TS optimization,
                  C. Bannwarth                     DFT functionals, gCP, sTDA/sTD-DF
   Ed Valeev, F. Pavosevic, A. Kumar             : LibInt (2-el integral package), F12 methods
   Garnet Chan, S. Sharma, J. Yang, R. Olivares  : DMRG
   Ulf Ekstrom                                   : XCFun DFT Library
   Mihaly Kallay                                 : mrcc  (arbitrary order and MRCC methods)
   Andreas Klamt, Michael Diedenhofen            : otool_cosmo (COSMO solvation model)
   Jiri Pittner, Ondrej Demel                    : Mk-CCSD
   Frank Weinhold                                : gennbo (NPA and NBO analysis)
   Christopher J. Cramer and Donald G. Truhlar   : smd solvation model
   Lars Goerigk                                  : TD-DFT with DH, B97 family of functionals
   V. Asgeirsson, H. Jonsson                     : NEB implementation
   FAccTs GmbH                                   : IRC, NEB, NEB-TS, Multilevel, MM, QM/MM, CI optimization
   S Lehtola, MJT Oliveira, MAL Marques          : LibXC Library


 Your calculation uses the libint2 library for the computation of 2-el integrals
 For citations please refer to: http://libint.valeyev.net

 Your ORCA version has been built with support for libXC version: 4.2.3
 For citations please refer to: https://tddft.org/programs/libxc/

 This ORCA versions uses:
   CBLAS   interface :  Fast vector & matrix operations
   LAPACKE interface :  Fast linear algebra routines
   SCALAPACK package :  Parallel linear algebra routines


Your calculation utilizes the atom-pairwise dispersion correction
with the zero-damping scheme (D30)
Cite in your paper:
S.Grimme, J.Antony, S.Ehrlich and H.Krieg, J.Chem.Phys., 132, (2010), 154104 
   

XCFun DFT library Copyright 2009-2010 Ulf Ekstrom and contributors.
See http://admol.org/xcfun for more information. This is free soft-
ware; see the source code for copying conditions. There is ABSOLUTELY
NO WARRANTY; not even for MERCHANTABILITY or FITNESS FOR A PARTICULAR
PURPOSE. For details see the documentation. Scientific users of this 
library should cite U. Ekstrom, L. Visscher, R. Bast, A. J. Thorvald-
sen and K. Ruud; J.Chem.Theor.Comp. 2010, DOI: 10.1021/ct100117s
XCFun Version 0.99 
----- Orbital basis set information -----
Your calculation utilizes the basis: def2-SVP
   F. Weigend and R. Ahlrichs, Phys. Chem. Chem. Phys. 7, 3297 (2005).

================================================================================
                                        WARNINGS
                       Please study these warnings very carefully!
================================================================================


WARNING: Geometry Optimization
  ===> : Switching off AutoStart
         For restart on a previous wavefunction, please use MOREAD

INFO   : the flag for use of LIBINT has been found!

================================================================================
                                       INPUT FILE
================================================================================
NAME = 062530477.inp
|  1> # ORCA input file
|  2> # -46.46425335
|  3> ! wB97X-D3 def2-SVP Opt
|  4> * xyz 0 1
|  5>    C       -3.17090        -2.51810        -1.42830
|  6>    H       -3.42620        -3.31760        -0.73550
|  7>    C       -2.26120        -1.49820        -0.75580
|  8>    C       -2.91950        -0.86780         0.46860
|  9>    H       -3.13770        -1.63870         1.21060
| 10>    H       -3.85880        -0.39740         0.17330
| 11>    C       -2.02730         0.19060         1.10870
| 12>    O       -1.94470         1.29930         0.23650
| 13>    C       -1.20120         2.38560         0.73540
| 14>    C        0.30950         2.13450         0.78270
| 15>    H        0.51570         1.31080         1.46640
| 16>    H        0.79940         3.02880         1.17060
| 17>    C        0.86870         1.77270        -0.59900
| 18>    C        1.32280         3.01300        -1.36190
| 19>    H        2.15080         3.49510        -0.84530
| 20>    H        0.50690         3.72630        -1.44730
| 21>    H        1.65220         2.74940        -2.36480
| 22>    C        2.01880         0.76870        -0.46250
| 23>    N        1.52990        -0.45120         0.14850
| 24>    H        0.83000        -0.87310        -0.45550
| 25>    C        2.52560        -1.44260         0.51220
| 26>    C        1.84400        -2.50400         1.37560
| 27>    H        2.57580        -3.20760         1.76350
| 28>    H        1.33250        -2.03180         2.21000
| 29>    H        1.11140        -3.05420         0.78840
| 30>    C        3.22350        -2.10160        -0.68580
| 31>    H        2.49040        -2.59580        -1.32190
| 32>    H        3.75570        -1.36140        -1.27880
| 33>    H        3.94000        -2.84350        -0.34270
| 34>    H        3.27950        -0.92380         1.11810
| 35>    H        2.47010         0.60670        -1.45650
| 36>    H        2.79270         1.18350         0.19170
| 37>    H        0.06540         1.28580        -1.16290
| 38>    H       -1.42250         3.21050         0.05220
| 39>    H       -1.56110         2.65790         1.74050
| 40>    H       -2.45410         0.51410         2.07250
| 41>    H       -1.03060        -0.23090         1.29620
| 42>    H       -2.01110        -0.70470        -1.46140
| 43>    H       -1.33270        -1.98600        -0.44830
| 44>    H       -4.09300        -2.04600        -1.75960
| 45>    H       -2.68110        -2.95800        -2.29430
| 46> *
| 47> 
| 48>                          ****END OF INPUT****
================================================================================

                       *****************************
                       * Geometry Optimization Run *
                       *****************************

Geometry optimization settings:
Update method            Update   .... BFGS
Choice of coordinates    CoordSys .... Z-matrix Internals
Initial Hessian          InHess   .... Almoef's Model

Convergence Tolerances:
Energy Change            TolE     ....  5.0000e-06 Eh
Max. Gradient            TolMAXG  ....  3.0000e-04 Eh/bohr
RMS Gradient             TolRMSG  ....  1.0000e-04 Eh/bohr
Max. Displacement        TolMAXD  ....  4.0000e-03 bohr
RMS Displacement         TolRMSD  ....  2.0000e-03 bohr
Strict Convergence                ....  False
------------------------------------------------------------------------------
                        ORCA OPTIMIZATION COORDINATE SETUP
------------------------------------------------------------------------------

The optimization will be done in new redundant internal coordinates
Making redundant internal coordinates   ...  (new redundants) done
Evaluating the initial hessian          ...  (Almloef) done
Evaluating the coordinates              ...  done
Calculating the B-matrix                .... done
Calculating the G-matrix                .... done
Diagonalizing the G-matrix              .... done
Small eigenvalue found = 2.942e-03
Small eigenvalue found = 4.345e-03
Small eigenvalue found = 1.275e-02
Small eigenvalue found = 1.402e-02
Small eigenvalue found = 2.697e-02
The first mode is                       ....   99
The number of degrees of freedom        ....  117

    -----------------------------------------------------------------
                    Redundant Internal Coordinates


    -----------------------------------------------------------------
         Definition                    Initial Value    Approx d2E/dq
    -----------------------------------------------------------------
      1. B(H   1,C   0)                  1.0883         0.362384   
      2. B(C   2,C   0)                  1.5232         0.383085   
      3. B(C   3,C   2)                  1.5264         0.378538   
      4. B(H   4,C   3)                  1.0920         0.357465   
      5. B(H   5,C   3)                  1.0912         0.358489   
      6. B(C   6,C   3)                  1.5251         0.380347   
      7. B(O   7,C   6)                  1.4131         0.514122   
      8. B(C   8,O   7)                  1.4077         0.524285   
      9. B(C   9,C   8)                  1.5322         0.370627   
     10. B(H  10,C   9)                  1.0902         0.359890   
     11. B(H  11,C   9)                  1.0910         0.358804   
     12. B(C  12,C   9)                  1.5339         0.368327   
     13. B(C  13,C  12)                  1.5253         0.380068   
     14. B(H  14,C  13)                  1.0885         0.362061   
     15. B(H  15,C  13)                  1.0871         0.363959   
     16. B(H  16,C  13)                  1.0880         0.362723   
     17. B(C  17,C  12)                  1.5328         0.369795   
     18. B(N  18,C  17)                  1.4493         0.450039   
     19. B(H  19,N  18)                  1.0162         0.422954   
     20. B(C  20,N  18)                  1.4514         0.446592   
     21. B(C  21,C  20)                  1.5286         0.375505   
     22. B(H  22,C  21)                  1.0868         0.364410   
     23. B(H  23,C  21)                  1.0867         0.364547   
     24. B(H  24,C  21)                  1.0882         0.362460   
     25. B(C  25,C  20)                  1.5351         0.366633   
     26. B(H  26,C  25)                  1.0892         0.361199   
     27. B(H  27,C  25)                  1.0876         0.363345   
     28. B(H  28,C  25)                  1.0870         0.364130   
     29. B(H  29,C  20)                  1.0976         0.350239   
     30. B(H  30,C  17)                  1.1036         0.342540   
     31. B(H  31,C  17)                  1.0950         0.353586   
     32. B(H  32,C  12)                  1.0956         0.352764   
     33. B(H  33,C   8)                  1.0937         0.355229   
     34. B(H  34,C   8)                  1.1018         0.344859   
     35. B(H  35,C   6)                  1.1026         0.343815   
     36. B(H  36,C   6)                  1.0983         0.349305   
     37. B(H  37,C   2)                  1.0909         0.358911   
     38. B(H  38,H  24)                  2.9401         0.000077   
     39. B(H  38,C   2)                  1.0930         0.356172   
     40. B(H  39,C   0)                  1.0876         0.363269   
     41. B(H  40,C   0)                  1.0878         0.362983   
     42. A(C   2,C   0,H  40)          110.6920         0.326089   
     43. A(H   1,C   0,H  39)          108.2952         0.291530   
     44. A(H   1,C   0,H  40)          108.3809         0.291494   
     45. A(C   2,C   0,H  39)          110.4994         0.326131   
     46. A(H  39,C   0,H  40)          108.3469         0.291605   
     47. A(H   1,C   0,C   2)          110.5457         0.326001   
     48. A(C   0,C   2,H  37)          109.7795         0.325484   
     49. A(C   0,C   2,C   3)          111.9084         0.365743   
     50. A(C   0,C   2,H  38)          109.4352         0.325075   
     51. A(C   3,C   2,H  38)          108.9666         0.324438   
     52. A(C   3,C   2,H  37)          108.4997         0.324846   
     53. A(H  37,C   2,H  38)          108.1704         0.290188   
     54. A(C   2,C   3,H   5)          109.4019         0.324783   
     55. A(C   2,C   3,H   4)          109.8566         0.324631   
     56. A(C   2,C   3,C   6)          111.7761         0.365294   
     57. A(H   4,C   3,H   5)          108.4333         0.290300   
     58. A(H   5,C   3,C   6)          108.5409         0.325038   
     59. A(H   4,C   3,C   6)          108.7614         0.324885   
     60. A(O   7,C   6,H  35)          109.3880         0.337262   
     61. A(C   3,C   6,O   7)          108.6410         0.382681   
     62. A(C   3,C   6,H  35)          110.1231         0.322816   
     63. A(H  35,C   6,H  36)          108.3399         0.287365   
     64. A(O   7,C   6,H  36)          110.6980         0.338154   
     65. A(C   3,C   6,H  36)          109.6463         0.323656   
     66. A(C   6,O   7,C   8)          114.6814         0.402210   
     67. A(C   9,C   8,H  34)          109.5374         0.321609   
     68. A(H  33,C   8,H  34)          108.5031         0.288258   
     69. A(C   9,C   8,H  33)          110.0230         0.323174   
     70. A(O   7,C   8,C   9)          113.9055         0.382261   
     71. A(O   7,C   8,H  34)          109.9678         0.338535   
     72. A(O   7,C   8,H  33)          104.7001         0.340214   
     73. A(C   8,C   9,C  12)          111.7350         0.361985   
     74. A(H  10,C   9,H  11)          108.1461         0.290648   
     75. A(C   8,C   9,H  11)          108.6262         0.323706   
     76. A(C   8,C   9,H  10)          109.2499         0.323866   
     77. A(H  11,C   9,C  12)          110.4828         0.323375   
     78. A(H  10,C   9,C  12)          108.5278         0.323536   
     79. A(C  17,C  12,H  32)          107.7514         0.322687   
     80. A(C   9,C  12,H  32)          107.5272         0.322476   
     81. A(C  13,C  12,C  17)          110.7192         0.363790   
     82. A(C  13,C  12,H  32)          108.7976         0.324140   
     83. A(C   9,C  12,C  17)          110.3552         0.361846   
     84. A(C   9,C  12,C  13)          111.5481         0.363543   
     85. A(H  15,C  13,H  16)          108.2872         0.291660   
     86. A(H  14,C  13,H  16)          108.3287         0.291420   
     87. A(C  12,C  13,H  16)          110.7418         0.325627   
     88. A(H  14,C  13,H  15)          108.5166         0.291576   
     89. A(C  12,C  13,H  15)          110.4505         0.325809   
     90. A(C  12,C  13,H  14)          110.4399         0.325529   
     91. A(C  12,C  17,N  18)          109.6193         0.372155   
     92. A(H  30,C  17,H  31)          107.7404         0.287746   
     93. A(N  18,C  17,H  31)          107.7824         0.331425   
     94. A(C  12,C  17,H  31)          109.5964         0.322810   
     95. A(N  18,C  17,H  30)          113.2098         0.329690   
     96. A(C  12,C  17,H  30)          108.8311         0.321136   
     97. A(H  19,N  18,C  20)          109.7455         0.338081   
     98. A(C  17,N  18,C  20)          116.6901         0.382078   
     99. A(C  17,N  18,H  19)          109.3425         0.338515   
    100. A(N  18,C  20,C  21)          108.0552         0.372645   
    101. A(C  25,C  20,H  29)          108.7510         0.321854   
    102. A(C  21,C  20,H  29)          108.8255         0.323118   
    103. A(N  18,C  20,H  29)          106.6595         0.330484   
    104. A(C  21,C  20,C  25)          110.2083         0.362508   
    105. A(N  18,C  20,C  25)          114.1771         0.371114   
    106. A(H  23,C  21,H  24)          108.4907         0.291700   
    107. A(H  22,C  21,H  24)          108.5774         0.291683   
    108. A(C  20,C  21,H  24)          110.2715         0.324942   
    109. A(H  22,C  21,H  23)          108.9187         0.291947   
    110. A(C  20,C  21,H  23)          109.9908         0.325249   
    111. A(C  20,C  21,H  22)          110.5423         0.325229   
    112. A(H  27,C  25,H  28)          108.3055         0.291760   
    113. A(H  26,C  25,H  28)          108.5617         0.291488   
    114. A(C  20,C  25,H  28)          110.2642         0.323913   
    115. A(H  26,C  25,H  27)          108.6478         0.291389   
    116. A(C  20,C  25,H  27)          110.8436         0.323798   
    117. A(C  20,C  25,H  26)          110.1547         0.323484   
    118. D(H  37,C   2,C   0,H  39)    -60.2858         0.011687   
    119. D(H  37,C   2,C   0,H  40)     59.7430         0.011687   
    120. D(C   3,C   2,C   0,H  39)     60.2494         0.011687   
    121. D(H  38,C   2,C   0,H  40)    -58.8321         0.011687   
    122. D(H  37,C   2,C   0,H   1)    179.8447         0.011687   
    123. D(C   3,C   2,C   0,H   1)    -59.6200         0.011687   
    124. D(H  38,C   2,C   0,H  39)   -178.8609         0.011687   
    125. D(C   3,C   2,C   0,H  40)   -179.7218         0.011687   
    126. D(H  38,C   2,C   0,H   1)     61.2697         0.011687   
    127. D(C   6,C   3,C   2,C   0)   -177.8484         0.011425   
    128. D(H   5,C   3,C   2,H  38)   -178.7625         0.011425   
    129. D(H   4,C   3,C   2,H  37)   -177.4021         0.011425   
    130. D(H   5,C   3,C   2,H  37)     63.6757         0.011425   
    131. D(C   6,C   3,C   2,H  38)     60.9905         0.011425   
    132. D(H   5,C   3,C   2,C   0)    -57.6015         0.011425   
    133. D(H   4,C   3,C   2,H  38)    -59.8404         0.011425   
    134. D(C   6,C   3,C   2,H  37)    -56.5712         0.011425   
    135. D(H   4,C   3,C   2,C   0)     61.3207         0.011425   
    136. D(H  35,C   6,C   3,C   2)   -171.1838         0.011529   
    137. D(H  36,C   6,C   3,H   5)   -172.8140         0.011529   
    138. D(H  36,C   6,C   3,H   4)     69.4013         0.011529   
    139. D(H  35,C   6,C   3,H   4)    -49.7179         0.011529   
    140. D(O   7,C   6,C   3,H   5)    -51.7166         0.011529   
    141. D(H  36,C   6,C   3,C   2)    -52.0645         0.011529   
    142. D(H  35,C   6,C   3,H   5)     68.0667         0.011529   
    143. D(O   7,C   6,C   3,H   4)   -169.5013         0.011529   
    144. D(O   7,C   6,C   3,C   2)     69.0329         0.011529   
    145. D(C   8,O   7,C   6,H  36)    -62.5944         0.020937   
    146. D(C   8,O   7,C   6,C   3)    176.9571         0.020937   
    147. D(C   8,O   7,C   6,H  35)     56.7167         0.020937   
    148. D(C   9,C   8,O   7,C   6)     71.8172         0.021808   
    149. D(H  34,C   8,O   7,C   6)    -51.5669         0.021808   
    150. D(H  33,C   8,O   7,C   6)   -167.9518         0.021808   
    151. D(C  12,C   9,C   8,H  34)   -179.0816         0.010979   
    152. D(C  12,C   9,C   8,H  33)    -59.8904         0.010979   
    153. D(C  12,C   9,C   8,O   7)     57.3008         0.010979   
    154. D(H  11,C   9,C   8,H  34)    -56.9481         0.010979   
    155. D(H  11,C   9,C   8,H  33)     62.2431         0.010979   
    156. D(H  11,C   9,C   8,O   7)    179.4343         0.010979   
    157. D(H  10,C   9,C   8,H  34)     60.8152         0.010979   
    158. D(H  10,C   9,C   8,H  33)   -179.9936         0.010979   
    159. D(H  10,C   9,C   8,O   7)    -62.8024         0.010979   
    160. D(H  32,C  12,C   9,H  11)   -149.6864         0.010851   
    161. D(H  32,C  12,C   9,H  10)     91.9008         0.010851   
    162. D(H  32,C  12,C   9,C   8)    -28.6249         0.010851   
    163. D(C  17,C  12,C   9,H  11)     93.0426         0.010851   
    164. D(C  17,C  12,C   9,H  10)    -25.3701         0.010851   
    165. D(C  17,C  12,C   9,C   8)   -145.8959         0.010851   
    166. D(C  13,C  12,C   9,H  10)   -148.8889         0.010851   
    167. D(C  13,C  12,C   9,H  11)    -30.4761         0.010851   
    168. D(C  13,C  12,C   9,C   8)     90.5853         0.010851   
    169. D(H  16,C  13,C  12,H  32)    -57.6104         0.011513   
    170. D(H  16,C  13,C  12,C   9)   -176.0636         0.011513   
    171. D(H  15,C  13,C  12,H  32)     62.3443         0.011513   
    172. D(H  15,C  13,C  12,C  17)   -179.4210         0.011513   
    173. D(H  15,C  13,C  12,C   9)    -56.1090         0.011513   
    174. D(H  14,C  13,C  12,H  32)   -177.6100         0.011513   
    175. D(H  16,C  13,C  12,C  17)     60.6244         0.011513   
    176. D(H  14,C  13,C  12,C  17)    -59.3753         0.011513   
    177. D(H  14,C  13,C  12,C   9)     63.9367         0.011513   
    178. D(N  18,C  17,C  12,H  32)    -55.6032         0.010932   
    179. D(N  18,C  17,C  12,C  13)   -174.4728         0.010932   
    180. D(N  18,C  17,C  12,C   9)     61.5291         0.010932   
    181. D(H  31,C  17,C  12,H  32)   -173.7067         0.010932   
    182. D(H  31,C  17,C  12,C  13)     67.4237         0.010932   
    183. D(H  31,C  17,C  12,C   9)    -56.5744         0.010932   
    184. D(H  30,C  17,C  12,H  32)     68.7031         0.010932   
    185. D(H  30,C  17,C  12,C  13)    -50.1665         0.010932   
    186. D(H  30,C  17,C  12,C   9)   -174.1646         0.010932   
    187. D(C  20,N  18,C  17,H  31)    -52.9160         0.017278   
    188. D(C  20,N  18,C  17,H  30)     66.1424         0.017278   
    189. D(C  20,N  18,C  17,C  12)   -172.1421         0.017278   
    190. D(H  19,N  18,C  17,H  31)   -178.1717         0.017278   
    191. D(H  19,N  18,C  17,H  30)    -59.1134         0.017278   
    192. D(H  19,N  18,C  17,C  12)     62.6022         0.017278   
    193. D(H  29,C  20,N  18,H  19)    177.1682         0.017011   
    194. D(H  29,C  20,N  18,C  17)     52.1156         0.017011   
    195. D(C  25,C  20,N  18,H  19)     57.0262         0.017011   
    196. D(C  25,C  20,N  18,C  17)    -68.0264         0.017011   
    197. D(C  21,C  20,N  18,H  19)    -65.9714         0.017011   
    198. D(C  21,C  20,N  18,C  17)    168.9760         0.017011   
    199. D(H  24,C  21,C  20,H  29)   -178.2928         0.011252   
    200. D(H  24,C  21,C  20,C  25)    -59.1234         0.011252   
    201. D(H  24,C  21,C  20,N  18)     66.2581         0.011252   
    202. D(H  23,C  21,C  20,H  29)     62.0947         0.011252   
    203. D(H  23,C  21,C  20,C  25)   -178.7360         0.011252   
    204. D(H  23,C  21,C  20,N  18)    -53.3544         0.011252   
    205. D(H  22,C  21,C  20,H  29)    -58.2209         0.011252   
    206. D(H  22,C  21,C  20,C  25)     60.9484         0.011252   
    207. D(H  22,C  21,C  20,N  18)   -173.6700         0.011252   
    208. D(H  28,C  25,C  20,H  29)     62.0950         0.010758   
    209. D(H  28,C  25,C  20,C  21)    -57.1197         0.010758   
    210. D(H  28,C  25,C  20,N  18)   -178.9408         0.010758   
    211. D(H  27,C  25,C  20,H  29)    -57.8270         0.010758   
    212. D(H  27,C  25,C  20,C  21)   -177.0416         0.010758   
    213. D(H  27,C  25,C  20,N  18)     61.1373         0.010758   
    214. D(H  26,C  25,C  20,H  29)   -178.1053         0.010758   
    215. D(H  26,C  25,C  20,C  21)     62.6801         0.010758   
    216. D(H  26,C  25,C  20,N  18)    -59.1410         0.010758   
    -----------------------------------------------------------------

Number of atoms                         .... 41
Number of degrees of freedom            .... 216

         *************************************************************
         *                GEOMETRY OPTIMIZATION CYCLE   1            *
         *************************************************************
---------------------------------
CARTESIAN COORDINATES (ANGSTROEM)
---------------------------------
  C     -3.170900   -2.518100   -1.428300
  H     -3.426200   -3.317600   -0.735500
  C     -2.261200   -1.498200   -0.755800
  C     -2.919500   -0.867800    0.468600
  H     -3.137700   -1.638700    1.210600
  H     -3.858800   -0.397400    0.173300
  C     -2.027300    0.190600    1.108700
  O     -1.944700    1.299300    0.236500
  C     -1.201200    2.385600    0.735400
  C      0.309500    2.134500    0.782700
  H      0.515700    1.310800    1.466400
  H      0.799400    3.028800    1.170600
  C      0.868700    1.772700   -0.599000
  C      1.322800    3.013000   -1.361900
  H      2.150800    3.495100   -0.845300
  H      0.506900    3.726300   -1.447300
  H      1.652200    2.749400   -2.364800
  C      2.018800    0.768700   -0.462500
  N      1.529900   -0.451200    0.148500
  H      0.830000   -0.873100   -0.455500
  C      2.525600   -1.442600    0.512200
  C      1.844000   -2.504000    1.375600
  H      2.575800   -3.207600    1.763500
  H      1.332500   -2.031800    2.210000
  H      1.111400   -3.054200    0.788400
  C      3.223500   -2.101600   -0.685800
  H      2.490400   -2.595800   -1.321900
  H      3.755700   -1.361400   -1.278800
  H      3.940000   -2.843500   -0.342700
  H      3.279500   -0.923800    1.118100
  H      2.470100    0.606700   -1.456500
  H      2.792700    1.183500    0.191700
  H      0.065400    1.285800   -1.162900
  H     -1.422500    3.210500    0.052200
  H     -1.561100    2.657900    1.740500
  H     -2.454100    0.514100    2.072500
  H     -1.030600   -0.230900    1.296200
  H     -2.011100   -0.704700   -1.461400
  H     -1.332700   -1.986000   -0.448300
  H     -4.093000   -2.046000   -1.759600
  H     -2.681100   -2.958000   -2.294300

----------------------------
CARTESIAN COORDINATES (A.U.)
----------------------------
  NO LB      ZA    FRAG     MASS         X           Y           Z
   0 C     6.0000    0    12.011   -5.992133   -4.758519   -2.699096
   1 H     1.0000    0     1.008   -6.474580   -6.269355   -1.389894
   2 C     6.0000    0    12.011   -4.273049   -2.831188   -1.428255
   3 C     6.0000    0    12.011   -5.517055   -1.639904    0.885526
   4 H     1.0000    0     1.008   -5.929394   -3.096694    2.287702
   5 H     1.0000    0     1.008   -7.292075   -0.750977    0.327490
   6 C     6.0000    0    12.011   -3.831042    0.360182    2.095139
   7 O     8.0000    0    15.999   -3.674950    2.455321    0.446920
   8 C     6.0000    0    12.011   -2.269939    4.508131    1.389705
   9 C     6.0000    0    12.011    0.584870    4.033620    1.479089
  10 H     1.0000    0     1.008    0.974532    2.477053    2.771094
  11 H     1.0000    0     1.008    1.510647    5.723603    2.212113
  12 C     6.0000    0    12.011    1.641605    3.349918   -1.131946
  13 C     6.0000    0    12.011    2.499730    5.693745   -2.573618
  14 H     1.0000    0     1.008    4.064423    6.604782   -1.597386
  15 H     1.0000    0     1.008    0.957902    7.041686   -2.735001
  16 H     1.0000    0     1.008    3.122206    5.195613   -4.468824
  17 C     6.0000    0    12.011    3.814979    1.452632   -0.873998
  18 N     7.0000    0    14.007    2.891092   -0.852644    0.280624
  19 H     1.0000    0     1.008    1.568473   -1.649920   -0.860770
  20 C     6.0000    0    12.011    4.772692   -2.726119    0.967918
  21 C     6.0000    0    12.011    3.484655   -4.731874    2.599507
  22 H     1.0000    0     1.008    4.867557   -6.061486    3.332532
  23 H     1.0000    0     1.008    2.518060   -3.839546    4.176295
  24 H     1.0000    0     1.008    2.100242   -5.771602    1.489860
  25 C     6.0000    0    12.011    6.091532   -3.971448   -1.295974
  26 H     1.0000    0     1.008    4.706174   -4.905351   -2.498029
  27 H     1.0000    0     1.008    7.097244   -2.572673   -2.416582
  28 H     1.0000    0     1.008    7.445521   -5.373436   -0.647609
  29 H     1.0000    0     1.008    6.197357   -1.745729    2.112903
  30 H     1.0000    0     1.008    4.667813    1.146497   -2.752386
  31 H     1.0000    0     1.008    5.277438    2.236491    0.362260
  32 H     1.0000    0     1.008    0.123588    2.429810   -2.197563
  33 H     1.0000    0     1.008   -2.688135    6.066966    0.098644
  34 H     1.0000    0     1.008   -2.950051    5.022703    3.289068
  35 H     1.0000    0     1.008   -4.637577    0.971508    3.916457
  36 H     1.0000    0     1.008   -1.947552   -0.436338    2.449463
  37 H     1.0000    0     1.008   -3.800428   -1.331690   -2.761646
  38 H     1.0000    0     1.008   -2.518438   -3.752996   -0.847164
  39 H     1.0000    0     1.008   -7.734649   -3.866380   -3.325162
  40 H     1.0000    0     1.008   -5.066545   -5.589810   -4.335599

--------------------------------
INTERNAL COORDINATES (ANGSTROEM)
--------------------------------
 C      0   0   0     0.000000000000     0.00000000     0.00000000
 H      1   0   0     1.088278539713     0.00000000     0.00000000
 C      1   2   0     1.523156705661   110.54569658     0.00000000
 C      3   1   2     1.526407026320   111.90844271   300.37995369
 H      4   3   1     1.091999107142   109.85664638    61.32069642
 H      4   3   1     1.091220756767   109.40192657   302.39854690
 C      4   3   1     1.525109638682   111.77607112   182.15159610
 O      7   4   3     1.413071579928   108.64104010    69.03289206
 C      8   7   4     1.407743282705   114.68144176   176.95707677
 C      9   8   7     1.532156320354   113.90553761    71.81719126
 H     10   9   8     1.090158621486   109.24986570   297.19757987
 H     10   9   8     1.090981626793   108.62615125   179.43432978
 C     10   9   8     1.533850960817   111.73504373    57.30078862
 C     13  10   9     1.525308922809   111.54807293    90.58534422
 H     14  13  10     1.088521919853   110.43991183    63.93674727
 H     14  13  10     1.087098367214   110.45047563   303.89103166
 H     14  13  10     1.088024691815   110.74179517   183.93641057
 C     13  10   9     1.532768169033   110.35515363   214.10407738
 N     18  13  10     1.449310256639   109.61933293    61.52905665
 H     19  18  13     1.016206484923   109.34253644    62.60219271
 C     19  18  13     1.451402817966   116.69007610   187.85794006
 C     21  19  18     1.528596768281   108.05522196   168.97598233
 H     22  21  19     1.086761523978   110.54225766   186.32998420
 H     22  21  19     1.086659307235   109.99078550   306.64560677
 H     22  21  19     1.088221778867   110.27146936    66.25813910
 C     21  19  18     1.535105667373   114.17708864   291.97363840
 H     26  21  19     1.089170537611   110.15470498   300.85897881
 H     26  21  19     1.087557759386   110.84361201    61.13727950
 H     26  21  19     1.086970776976   110.26418430   181.05920090
 H     21  19  18     1.097557952912   106.65947934    52.11557413
 H     18  13  10     1.103608485832   108.83113975   185.83537906
 H     18  13  10     1.094969355736   109.59643625   303.42555275
 H     13  10   9     1.095602897952   107.52724770   331.37505147
 H      9   8   7     1.093707428886   104.70011789   192.04815011
 H      9   8   7     1.101771895630   109.96780264   308.43307010
 H      7   4   3     1.102597356246   110.12314670   188.81620596
 H      7   4   3     1.098284749052   109.64633669   307.93547696
 H      3   1   2     1.090900371253   109.77946171   179.84472607
 H      3   1   2     1.092985516830   109.43521617    61.26965625
 H      1   2   3     1.087615055983   108.29521549   238.81438119
 H      1   2   3     1.087829053666   108.38093035   121.47804571

---------------------------
INTERNAL COORDINATES (A.U.)
---------------------------
 C      0   0   0     0.000000000000     0.00000000     0.00000000
 H      1   0   0     2.056548397481     0.00000000     0.00000000
 C      1   2   0     2.878349032745   110.54569658     0.00000000
 C      3   1   2     2.884491248639   111.90844271   300.37995369
 H      4   3   1     2.063579250986   109.85664638    61.32069642
 H      4   3   1     2.062108381941   109.40192657   302.39854690
 C      4   3   1     2.882039541312   111.77607112   182.15159610
 O      7   4   3     2.670318293691   108.64104010    69.03289206
 C      8   7   4     2.660249271179   114.68144176   176.95707677
 C      9   8   7     2.895355839825   113.90553761    71.81719126
 H     10   9   8     2.060101237141   109.24986570   297.19757987
 H     10   9   8     2.061656491779   108.62615125   179.43432978
 C     10   9   8     2.898558246197   111.73504373    57.30078862
 C     13  10   9     2.882416133735   111.54807293    90.58534422
 H     14  13  10     2.057008319292   110.43991183    63.93674727
 H     14  13  10     2.054318194668   110.45047563   303.89103166
 H     14  13  10     2.056068694475   110.74179517   183.93641057
 C     13  10   9     2.896512066264   110.35515363   214.10407738
 N     18  13  10     2.738799468131   109.61933293    61.52905665
 H     19  18  13     1.920351952020   109.34253644    62.60219271
 C     19  18  13     2.742753835958   116.69007610   187.85794006
 C     21  19  18     2.888629261249   108.05522196   168.97598233
 H     22  21  19     2.053681653202   110.54225766   186.32998420
 H     22  21  19     2.053488491550   109.99078550   306.64560677
 H     22  21  19     2.056441135027   110.27146936    66.25813910
 C     21  19  18     2.900929297965   114.17708864   291.97363840
 H     26  21  19     2.058234029221   110.15470498   300.85897881
 H     26  21  19     2.055186320060   110.84361201    61.13727950
 H     26  21  19     2.054077084060   110.26418430   181.05920090
 H     21  19  18     2.074083947111   106.65947934    52.11557413
 H     18  13  10     2.085517797294   108.83113975   185.83537906
 H     18  13  10     2.069192207376   109.59643625   303.42555275
 H     13  10   9     2.070389428659   107.52724770   331.37505147
 H      9   8   7     2.066807511229   104.70011789   192.04815011
 H      9   8   7     2.082047144792   109.96780264   308.43307010
 H      7   4   3     2.083607039290   110.12314670   188.81620596
 H      7   4   3     2.075457392771   109.64633669   307.93547696
 H      3   1   2     2.061502941061   109.77946171   179.84472607
 H      3   1   2     2.065443295151   109.43521617    61.26965625
 H      1   2   3     2.055294594937   108.29521549   238.81438119
 H      1   2   3     2.055698991952   108.38093035   121.47804571

---------------------
BASIS SET INFORMATION
---------------------
There are 4 groups of distinct atoms

 Group   1 Type C   : 7s4p1d contracted to 3s2p1d pattern {511/31/1}
 Group   2 Type H   : 4s1p contracted to 2s1p pattern {31/1}
 Group   3 Type O   : 7s4p1d contracted to 3s2p1d pattern {511/31/1}
 Group   4 Type N   : 7s4p1d contracted to 3s2p1d pattern {511/31/1}

Atom   0C    basis set group =>   1
Atom   1H    basis set group =>   2
Atom   2C    basis set group =>   1
Atom   3C    basis set group =>   1
Atom   4H    basis set group =>   2
Atom   5H    basis set group =>   2
Atom   6C    basis set group =>   1
Atom   7O    basis set group =>   3
Atom   8C    basis set group =>   1
Atom   9C    basis set group =>   1
Atom  10H    basis set group =>   2
Atom  11H    basis set group =>   2
Atom  12C    basis set group =>   1
Atom  13C    basis set group =>   1
Atom  14H    basis set group =>   2
Atom  15H    basis set group =>   2
Atom  16H    basis set group =>   2
Atom  17C    basis set group =>   1
Atom  18N    basis set group =>   4
Atom  19H    basis set group =>   2
Atom  20C    basis set group =>   1
Atom  21C    basis set group =>   1
Atom  22H    basis set group =>   2
Atom  23H    basis set group =>   2
Atom  24H    basis set group =>   2
Atom  25C    basis set group =>   1
Atom  26H    basis set group =>   2
Atom  27H    basis set group =>   2
Atom  28H    basis set group =>   2
Atom  29H    basis set group =>   2
Atom  30H    basis set group =>   2
Atom  31H    basis set group =>   2
Atom  32H    basis set group =>   2
Atom  33H    basis set group =>   2
Atom  34H    basis set group =>   2
Atom  35H    basis set group =>   2
Atom  36H    basis set group =>   2
Atom  37H    basis set group =>   2
Atom  38H    basis set group =>   2
Atom  39H    basis set group =>   2
Atom  40H    basis set group =>   2
------------------------------------------------------------------------------
                           ORCA GTO INTEGRAL CALCULATION
------------------------------------------------------------------------------

                         BASIS SET STATISTICS AND STARTUP INFO

 # of primitive gaussian shells          ...  303
 # of primitive gaussian functions       ...  525
 # of contracted shells                  ...  165
 # of contracted basis functions         ...  331
 Highest angular momentum                ...    2
 Maximum contraction depth               ...    5
 Integral package used                   ... LIBINT
 Integral threshhold            Thresh   ...  2.500e-11
 Primitive cut-off              TCut     ...  2.500e-12


------------------------------ INTEGRAL EVALUATION ----------------------------


 * One electron integrals 
 Pre-screening matrix                    ... done
 Shell pair data                         ... done (   0.004 sec)

-------------------------------------------------------------------------------
                                 ORCA SCF
-------------------------------------------------------------------------------

------------
SCF SETTINGS
------------
Hamiltonian:
 Density Functional     Method          .... DFT(GTOs)
 Exchange Functional    Exchange        .... WB97X-D3
 Correlation Functional Correlation     .... WB97X-D3
 Gradients option       PostSCFGGA      .... off
 Hybrid DFT is turned on
   Fraction HF Exchange ScalHFX         ....  0.195728
   Scaling of DF-GGA-X  ScalDFX         ....  0.000000
   Scaling of DF-GGA-C  ScalDFC         ....  1.000000
   Scaling of DF-LDA-C  ScalLDAC        ....  1.000000
   Perturbative correction              ....  0.000000
   Density functional embedding theory  .... OFF
 Long-range corrected/Screened/Range-Separated Hybrid DFT is turned on
   Amount of maximum screened exact exchange              ....  0.804272
   Range separation parameter mu (erf(mu*r12)/r12)        ....  0.250000


General Settings:
 Integral files         IntName         .... 062530477
 Hartree-Fock type      HFTyp           .... RHF
 Total Charge           Charge          ....    0
 Multiplicity           Mult            ....    1
 Number of Electrons    NEL             ....  114
 Basis Dimension        Dim             ....  331
 Nuclear Repulsion      ENuc            ....   1004.5492899862 Eh

Convergence Acceleration:
 DIIS                   CNVDIIS         .... on
   Start iteration      DIISMaxIt       ....    12
   Startup error        DIISStart       ....  0.200000
   # of expansion vecs  DIISMaxEq       ....     5
   Bias factor          DIISBfac        ....   1.050
   Max. coefficient     DIISMaxC        ....  10.000
 Newton-Raphson         CNVNR           .... off
 SOSCF                  CNVSOSCF        .... on
   Start iteration      SOSCFMaxIt      ....   150
   Startup grad/error   SOSCFStart      ....  0.003300
 Level Shifting         CNVShift        .... on
   Level shift para.    LevelShift      ....    0.2500
   Turn off err/grad.   ShiftErr        ....    0.0010
 Zerner damping         CNVZerner       .... off
 Static damping         CNVDamp         .... on
   Fraction old density DampFac         ....    0.7000
   Max. Damping (<1)    DampMax         ....    0.9800
   Min. Damping (>=0)   DampMin         ....    0.0000
   Turn off err/grad.   DampErr         ....    0.1000
 Fernandez-Rico         CNVRico         .... off

SCF Procedure:
 Maximum # iterations   MaxIter         ....   125
 SCF integral mode      SCFMode         .... Direct
   Integral package                     .... LIBINT
 Reset frequency        DirectResetFreq ....    20
 Integral Threshold     Thresh          ....  2.500e-11 Eh
 Primitive CutOff       TCut            ....  2.500e-12 Eh

Convergence Tolerance:
 Convergence Check Mode ConvCheckMode   .... Total+1el-Energy
 Convergence forced     ConvForced      .... 0
 Energy Change          TolE            ....  1.000e-08 Eh
 1-El. energy change                    ....  1.000e-05 Eh
 Orbital Gradient       TolG            ....  1.000e-05
 Orbital Rotation angle TolX            ....  1.000e-05
 DIIS Error             TolErr          ....  5.000e-07


Diagonalization of the overlap matrix:
Smallest eigenvalue                        ... 1.298e-03
Time for diagonalization                   ...    0.061 sec
Threshold for overlap eigenvalues          ... 1.000e-08
Number of eigenvalues below threshold      ... 0
Time for construction of square roots      ...    0.007 sec
Total time needed                          ...    0.068 sec

-------------------
DFT GRID GENERATION
-------------------

General Integration Accuracy     IntAcc      ...  4.340
Radial Grid Type                 RadialGrid  ... Gauss-Chebyshev
Angular Grid (max. acc.)         AngularGrid ... Lebedev-110
Angular grid pruning method      GridPruning ... 3 (G Style)
Weight generation scheme         WeightScheme... Becke
Basis function cutoff            BFCut       ...    1.0000e-11
Integration weight cutoff        WCut        ...    1.0000e-14
Grids for H and He will be reduced by one unit

# of grid points (after initial pruning)     ...  44728 (   0.0 sec)
# of grid points (after weights+screening)   ...  39613 (   0.4 sec)
nearest neighbour list constructed           ...    0.0 sec
Grid point re-assignment to atoms done       ...    0.0 sec
Grid point division into batches done        ...    0.0 sec
Reduced shell lists constructed in    0.4 sec

Total number of grid points                  ...    39613
Total number of batches                      ...      639
Average number of points per batch           ...       61
Average number of grid points per atom       ...      966
Average number of shells per batch           ...    94.32 (57.16%)
Average number of basis functions per batch  ...   172.94 (52.25%)
Average number of large shells per batch     ...    62.80 (66.58%)
Average number of large basis fcns per batch ...   115.03 (66.52%)
Maximum spatial batch extension              ...  24.15, 20.72, 20.60 au
Average spatial batch extension              ...   3.20,  3.23,  3.33 au

Time for grid setup =    0.824 sec

------------------------------
INITIAL GUESS: MODEL POTENTIAL
------------------------------
Loading Hartree-Fock densities                     ... done
Calculating cut-offs                               ... done
Setting up the integral package                    ... done
Initializing the effective Hamiltonian             ... done
Starting the Coulomb interaction                   ... done (   0.6 sec)
Reading the grid                                   ... done
Mapping shells                                     ... done
Starting the XC term evaluation                    ... done (   0.7 sec)
  promolecular density results
     # of electrons  =    113.975148996
     EX              =    -84.099274974
     EC              =     -3.754476543
     EX+EC           =    -87.853751517
Transforming the Hamiltonian                       ... done (   0.0 sec)
Diagonalizing the Hamiltonian                      ... done (   0.0 sec)
Back transforming the eigenvectors                 ... done (   0.0 sec)
Now organizing SCF variables                       ... done
                      ------------------
                      INITIAL GUESS DONE (   2.2 sec)
                      ------------------
--------------
SCF ITERATIONS
--------------
ITER       Energy         Delta-E        Max-DP      RMS-DP      [F,P]     Damp
               ***  Starting incremental Fock matrix formation  ***
  0   -602.4934950655   0.000000000000 0.06675513  0.00132817  0.1729985 0.7000
  1   -602.6625551225  -0.169060056921 0.04479705  0.00097151  0.0954476 0.7000
                               ***Turning on DIIS***
  2   -602.7505696195  -0.088014497086 0.07875629  0.00186868  0.0502196 0.0000
  3   -602.8917272040  -0.141157584488 0.03320597  0.00067642  0.0421122 0.0000
  4   -602.9133308139  -0.021603609856 0.00543093  0.00012416  0.0054992 0.0000
  5   -602.9137945042  -0.000463690318 0.00319325  0.00005397  0.0044800 0.0000
                      *** Initiating the SOSCF procedure ***
                           *** Shutting down DIIS ***
                      *** Re-Reading the Fockian *** 
                      *** Removing any level shift *** 
ITER      Energy       Delta-E        Grad      Rot      Max-DP    RMS-DP
  6   -602.91385739  -0.0000628854  0.000219  0.000219  0.001514  0.000032
               *** Restarting incremental Fock matrix formation ***
  7   -602.91386463  -0.0000072389  0.000131  0.000099  0.000547  0.000009
  8   -602.91386486  -0.0000002271  0.000147  0.000042  0.000289  0.000004
  9   -602.91386532  -0.0000004596  0.000008  0.000017  0.000045  0.000001
 10   -602.91386532  -0.0000000045  0.000004  0.000005  0.000016  0.000000
                  ***Gradient check signals convergence***
              ***Rediagonalizing the Fockian in SOSCF/NRSCF***

               *****************************************************
               *                     SUCCESS                       *
               *           SCF CONVERGED AFTER  11 CYCLES          *
               *****************************************************

Setting up the final grid:

General Integration Accuracy     IntAcc      ...  4.670
Radial Grid Type                 RadialGrid  ... Gauss-Chebyshev
Angular Grid (max. acc.)         AngularGrid ... Lebedev-302
Angular grid pruning method      GridPruning ... 3 (G Style)
Weight generation scheme         WeightScheme... Becke
Basis function cutoff            BFCut       ...    1.0000e-11
Integration weight cutoff        WCut        ...    1.0000e-14
Grids for H and He will be reduced by one unit

# of grid points (after initial pruning)     ... 178606 (   0.1 sec)
# of grid points (after weights+screening)   ... 154647 (   1.6 sec)
nearest neighbour list constructed           ...    0.0 sec
Grid point re-assignment to atoms done       ...    0.0 sec
Grid point division into batches done        ...    0.4 sec
Reduced shell lists constructed in    1.9 sec

Total number of grid points                  ...   154647
Total number of batches                      ...     2441
Average number of points per batch           ...       63
Average number of grid points per atom       ...     3772
Average number of shells per batch           ...    86.65 (52.51%)
Average number of basis functions per batch  ...   157.35 (47.54%)
Average number of large shells per batch     ...    56.28 (64.95%)
Average number of large basis fcns per batch ...   102.11 (64.89%)
Maximum spatial batch extension              ...  19.00, 21.85, 19.30 au
Average spatial batch extension              ...   2.12,  2.13,  2.14 au

Final grid set up in    3.5 sec
Final integration                            ... done (   3.2 sec)
Change in XC energy                          ...     0.002131164
Integrated number of electrons               ...   114.000425921
Previous integrated no of electrons          ...   113.996539895

----------------
TOTAL SCF ENERGY
----------------

Total Energy       :         -602.91173416 Eh          -16406.06235 eV

Components:
Nuclear Repulsion  :         1004.54928999 Eh           27335.17587 eV
Electronic Energy  :        -1607.46102414 Eh          -43741.23823 eV
One Electron Energy:        -2809.29456632 Eh          -76444.79153 eV
Two Electron Energy:         1201.83354218 Eh           32703.55330 eV

Virial components:
Potential Energy   :        -1198.95921394 Eh          -32625.33885 eV
Kinetic Energy     :          596.04747978 Eh           16219.27650 eV
Virial Ratio       :            2.01151629


DFT components:
N(Alpha)           :       57.000212960538 electrons
N(Beta)            :       57.000212960538 electrons
N(Total)           :      114.000425921077 electrons
E(XC)              :      -61.493379168658 Eh       
DFET-embed. en.    :        0.000000000000 Eh       

---------------
SCF CONVERGENCE
---------------

  Last Energy change         ...   -1.9834e-09  Tolerance :   1.0000e-08
  Last MAX-Density change    ...    3.7910e-06  Tolerance :   1.0000e-07
  Last RMS-Density change    ...    6.9448e-08  Tolerance :   5.0000e-09
  Last Orbital Gradient      ...    1.1338e-06  Tolerance :   1.0000e-05
  Last Orbital Rotation      ...    8.2573e-07  Tolerance :   1.0000e-05

             **** THE GBW FILE WAS UPDATED (062530477.gbw) ****
             **** DENSITY FILE WAS UPDATED (062530477.scfp) ****
             **** ENERGY FILE WAS UPDATED (062530477.en.tmp) ****
             **** THE GBW FILE WAS UPDATED (062530477.gbw) ****
             **** DENSITY FILE WAS UPDATED (062530477.scfp) ****
----------------
ORBITAL ENERGIES
----------------

  NO   OCC          E(Eh)            E(eV) 
   0   2.0000     -19.229274      -523.2551 
   1   2.0000     -14.407092      -392.0369 
   2   2.0000     -10.321735      -280.8687 
   3   2.0000     -10.319025      -280.7949 
   4   2.0000     -10.310518      -280.5635 
   5   2.0000     -10.300355      -280.2869 
   6   2.0000     -10.277810      -279.6734 
   7   2.0000     -10.274817      -279.5920 
   8   2.0000     -10.274064      -279.5715 
   9   2.0000     -10.273017      -279.5430 
  10   2.0000     -10.271227      -279.4943 
  11   2.0000     -10.271125      -279.4915 
  12   2.0000     -10.269994      -279.4607 
  13   2.0000     -10.266559      -279.3673 
  14   2.0000      -1.131037       -30.7771 
  15   2.0000      -1.018357       -27.7109 
  16   2.0000      -0.918778       -25.0012 
  17   2.0000      -0.903029       -24.5727 
  18   2.0000      -0.867248       -23.5990 
  19   2.0000      -0.840525       -22.8719 
  20   2.0000      -0.808136       -21.9905 
  21   2.0000      -0.793480       -21.5917 
  22   2.0000      -0.764575       -20.8051 
  23   2.0000      -0.739513       -20.1232 
  24   2.0000      -0.707331       -19.2475 
  25   2.0000      -0.689880       -18.7726 
  26   2.0000      -0.676405       -18.4059 
  27   2.0000      -0.654340       -17.8055 
  28   2.0000      -0.595594       -16.2069 
  29   2.0000      -0.583170       -15.8689 
  30   2.0000      -0.575687       -15.6652 
  31   2.0000      -0.571638       -15.5551 
  32   2.0000      -0.557247       -15.1635 
  33   2.0000      -0.549091       -14.9415 
  34   2.0000      -0.541061       -14.7230 
  35   2.0000      -0.532306       -14.4848 
  36   2.0000      -0.525410       -14.2971 
  37   2.0000      -0.506219       -13.7749 
  38   2.0000      -0.501074       -13.6349 
  39   2.0000      -0.490210       -13.3393 
  40   2.0000      -0.485075       -13.1996 
  41   2.0000      -0.484608       -13.1869 
  42   2.0000      -0.474483       -12.9113 
  43   2.0000      -0.469656       -12.7800 
  44   2.0000      -0.461024       -12.5451 
  45   2.0000      -0.449769       -12.2388 
  46   2.0000      -0.438146       -11.9225 
  47   2.0000      -0.433450       -11.7948 
  48   2.0000      -0.428153       -11.6506 
  49   2.0000      -0.423418       -11.5218 
  50   2.0000      -0.418142       -11.3782 
  51   2.0000      -0.414268       -11.2728 
  52   2.0000      -0.407117       -11.0782 
  53   2.0000      -0.404642       -11.0109 
  54   2.0000      -0.383511       -10.4359 
  55   2.0000      -0.340088        -9.2543 
  56   2.0000      -0.307728        -8.3737 
  57   0.0000       0.125768         3.4223 
  58   0.0000       0.145710         3.9650 
  59   0.0000       0.151393         4.1196 
  60   0.0000       0.154361         4.2004 
  61   0.0000       0.164899         4.4871 
  62   0.0000       0.179070         4.8728 
  63   0.0000       0.184706         5.0261 
  64   0.0000       0.188013         5.1161 
  65   0.0000       0.193435         5.2636 
  66   0.0000       0.202107         5.4996 
  67   0.0000       0.209554         5.7023 
  68   0.0000       0.211543         5.7564 
  69   0.0000       0.214539         5.8379 
  70   0.0000       0.222769         6.0619 
  71   0.0000       0.225848         6.1456 
  72   0.0000       0.229470         6.2442 
  73   0.0000       0.244034         6.6405 
  74   0.0000       0.251541         6.8448 
  75   0.0000       0.253841         6.9074 
  76   0.0000       0.256126         6.9695 
  77   0.0000       0.259668         7.0659 
  78   0.0000       0.264146         7.1878 
  79   0.0000       0.268398         7.3035 
  80   0.0000       0.271694         7.3932 
  81   0.0000       0.274327         7.4648 
  82   0.0000       0.287006         7.8098 
  83   0.0000       0.290486         7.9045 
  84   0.0000       0.295913         8.0522 
  85   0.0000       0.300899         8.1879 
  86   0.0000       0.311446         8.4749 
  87   0.0000       0.327287         8.9059 
  88   0.0000       0.327717         8.9176 
  89   0.0000       0.331619         9.0238 
  90   0.0000       0.337734         9.1902 
  91   0.0000       0.348883         9.4936 
  92   0.0000       0.354479         9.6459 
  93   0.0000       0.363348         9.8872 
  94   0.0000       0.374572        10.1926 
  95   0.0000       0.385401        10.4873 
  96   0.0000       0.396306        10.7840 
  97   0.0000       0.495844        13.4926 
  98   0.0000       0.513084        13.9617 
  99   0.0000       0.516601        14.0574 
 100   0.0000       0.521743        14.1974 
 101   0.0000       0.527827        14.3629 
 102   0.0000       0.530174        14.4268 
 103   0.0000       0.537304        14.6208 
 104   0.0000       0.539853        14.6901 
 105   0.0000       0.562552        15.3078 
 106   0.0000       0.568219        15.4620 
 107   0.0000       0.575218        15.6525 
 108   0.0000       0.582268        15.8443 
 109   0.0000       0.597389        16.2558 
 110   0.0000       0.609220        16.5777 
 111   0.0000       0.622666        16.9436 
 112   0.0000       0.632091        17.2001 
 113   0.0000       0.643268        17.5042 
 114   0.0000       0.655449        17.8357 
 115   0.0000       0.670182        18.2366 
 116   0.0000       0.694984        18.9115 
 117   0.0000       0.705851        19.2072 
 118   0.0000       0.708864        19.2892 
 119   0.0000       0.717285        19.5183 
 120   0.0000       0.722083        19.6489 
 121   0.0000       0.731376        19.9017 
 122   0.0000       0.736554        20.0426 
 123   0.0000       0.741898        20.1881 
 124   0.0000       0.743063        20.2198 
 125   0.0000       0.745467        20.2852 
 126   0.0000       0.753610        20.5068 
 127   0.0000       0.761092        20.7104 
 128   0.0000       0.764751        20.8099 
 129   0.0000       0.765525        20.8310 
 130   0.0000       0.769538        20.9402 
 131   0.0000       0.773620        21.0513 
 132   0.0000       0.780208        21.2305 
 133   0.0000       0.780912        21.2497 
 134   0.0000       0.785586        21.3769 
 135   0.0000       0.789815        21.4920 
 136   0.0000       0.792560        21.5667 
 137   0.0000       0.796986        21.6871 
 138   0.0000       0.797880        21.7114 
 139   0.0000       0.803574        21.8664 
 140   0.0000       0.804839        21.9008 
 141   0.0000       0.808789        22.0083 
 142   0.0000       0.812356        22.1053 
 143   0.0000       0.816533        22.2190 
 144   0.0000       0.818516        22.2729 
 145   0.0000       0.819802        22.3079 
 146   0.0000       0.825451        22.4617 
 147   0.0000       0.832792        22.6614 
 148   0.0000       0.839050        22.8317 
 149   0.0000       0.840171        22.8622 
 150   0.0000       0.847408        23.0591 
 151   0.0000       0.851662        23.1749 
 152   0.0000       0.864453        23.5229 
 153   0.0000       0.877873        23.8881 
 154   0.0000       0.891939        24.2709 
 155   0.0000       0.898914        24.4607 
 156   0.0000       0.908604        24.7244 
 157   0.0000       0.911524        24.8038 
 158   0.0000       0.938357        25.5340 
 159   0.0000       0.955729        26.0067 
 160   0.0000       0.970131        26.3986 
 161   0.0000       0.992560        27.0089 
 162   0.0000       0.999811        27.2062 
 163   0.0000       1.040563        28.3152 
 164   0.0000       1.085449        29.5366 
 165   0.0000       1.113161        30.2906 
 166   0.0000       1.118897        30.4467 
 167   0.0000       1.125201        30.6183 
 168   0.0000       1.142993        31.1024 
 169   0.0000       1.151176        31.3251 
 170   0.0000       1.165862        31.7247 
 171   0.0000       1.180938        32.1350 
 172   0.0000       1.197760        32.5927 
 173   0.0000       1.218334        33.1526 
 174   0.0000       1.243924        33.8489 
 175   0.0000       1.248186        33.9649 
 176   0.0000       1.285921        34.9917 
 177   0.0000       1.304371        35.4937 
 178   0.0000       1.324839        36.0507 
 179   0.0000       1.327849        36.1326 
 180   0.0000       1.352848        36.8129 
 181   0.0000       1.399907        38.0934 
 182   0.0000       1.401386        38.1336 
 183   0.0000       1.404761        38.2255 
 184   0.0000       1.414948        38.5027 
 185   0.0000       1.422786        38.7160 
 186   0.0000       1.453932        39.5635 
 187   0.0000       1.471271        40.0353 
 188   0.0000       1.485045        40.4101 
 189   0.0000       1.494491        40.6672 
 190   0.0000       1.511763        41.1372 
 191   0.0000       1.534009        41.7425 
 192   0.0000       1.570914        42.7467 
 193   0.0000       1.590553        43.2811 
 194   0.0000       1.598304        43.4921 
 195   0.0000       1.632091        44.4115 
 196   0.0000       1.645361        44.7725 
 197   0.0000       1.647231        44.8234 
 198   0.0000       1.649480        44.8846 
 199   0.0000       1.656826        45.0845 
 200   0.0000       1.659519        45.1578 
 201   0.0000       1.676325        45.6151 
 202   0.0000       1.725985        46.9664 
 203   0.0000       1.734404        47.1955 
 204   0.0000       1.762055        47.9480 
 205   0.0000       1.790736        48.7284 
 206   0.0000       1.806450        49.1560 
 207   0.0000       1.809852        49.2486 
 208   0.0000       1.826742        49.7082 
 209   0.0000       1.844310        50.1862 
 210   0.0000       1.856191        50.5095 
 211   0.0000       1.860509        50.6270 
 212   0.0000       1.866806        50.7984 
 213   0.0000       1.873144        50.9708 
 214   0.0000       1.879573        51.1458 
 215   0.0000       1.884122        51.2696 
 216   0.0000       1.888050        51.3764 
 217   0.0000       1.892318        51.4926 
 218   0.0000       1.899155        51.6786 
 219   0.0000       1.901114        51.7319 
 220   0.0000       1.903450        51.7955 
 221   0.0000       1.911605        52.0174 
 222   0.0000       1.919824        52.2411 
 223   0.0000       1.923523        52.3417 
 224   0.0000       1.932293        52.5804 
 225   0.0000       1.938062        52.7374 
 226   0.0000       1.940387        52.8006 
 227   0.0000       1.946916        52.9783 
 228   0.0000       1.954676        53.1894 
 229   0.0000       1.956773        53.2465 
 230   0.0000       1.958410        53.2910 
 231   0.0000       1.966810        53.5196 
 232   0.0000       1.969234        53.5856 
 233   0.0000       1.977583        53.8128 
 234   0.0000       1.989848        54.1465 
 235   0.0000       1.994601        54.2758 
 236   0.0000       2.001711        54.4693 
 237   0.0000       2.007222        54.6193 
 238   0.0000       2.010952        54.7208 
 239   0.0000       2.026704        55.1494 
 240   0.0000       2.034825        55.3704 
 241   0.0000       2.035099        55.3779 
 242   0.0000       2.041428        55.5501 
 243   0.0000       2.054936        55.9177 
 244   0.0000       2.064444        56.1764 
 245   0.0000       2.080869        56.6233 
 246   0.0000       2.084984        56.7353 
 247   0.0000       2.091003        56.8991 
 248   0.0000       2.102168        57.2029 
 249   0.0000       2.106231        57.3135 
 250   0.0000       2.124116        57.8001 
 251   0.0000       2.136964        58.1498 
 252   0.0000       2.141772        58.2806 
 253   0.0000       2.153054        58.5876 
 254   0.0000       2.176399        59.2228 
 255   0.0000       2.189845        59.5887 
 256   0.0000       2.195140        59.7328 
 257   0.0000       2.215882        60.2972 
 258   0.0000       2.236447        60.8568 
 259   0.0000       2.246751        61.1372 
 260   0.0000       2.255765        61.3825 
 261   0.0000       2.289666        62.3050 
 262   0.0000       2.296591        62.4934 
 263   0.0000       2.306197        62.7548 
 264   0.0000       2.347071        63.8670 
 265   0.0000       2.380597        64.7793 
 266   0.0000       2.385000        64.8991 
 267   0.0000       2.397364        65.2356 
 268   0.0000       2.414081        65.6905 
 269   0.0000       2.421524        65.8930 
 270   0.0000       2.450782        66.6892 
 271   0.0000       2.461958        66.9933 
 272   0.0000       2.472544        67.2813 
 273   0.0000       2.490933        67.7817 
 274   0.0000       2.505656        68.1824 
 275   0.0000       2.527791        68.7847 
 276   0.0000       2.532698        68.9182 
 277   0.0000       2.542918        69.1963 
 278   0.0000       2.548337        69.3438 
 279   0.0000       2.564887        69.7941 
 280   0.0000       2.581917        70.2575 
 281   0.0000       2.604098        70.8611 
 282   0.0000       2.615687        71.1765 
 283   0.0000       2.634030        71.6756 
 284   0.0000       2.641137        71.8690 
 285   0.0000       2.652628        72.1817 
 286   0.0000       2.658110        72.3309 
 287   0.0000       2.696538        73.3765 
 288   0.0000       2.702029        73.5259 
 289   0.0000       2.707335        73.6703 
 290   0.0000       2.722120        74.0727 
 291   0.0000       2.728288        74.2405 
 292   0.0000       2.735451        74.4354 
 293   0.0000       2.752505        74.8995 
 294   0.0000       2.796775        76.1041 
 295   0.0000       2.823907        76.8424 
 296   0.0000       2.840279        77.2879 
 297   0.0000       2.852618        77.6237 
 298   0.0000       2.878946        78.3401 
 299   0.0000       2.908182        79.1356 
 300   0.0000       2.923102        79.5416 
 301   0.0000       2.954224        80.3885 
 302   0.0000       2.962170        80.6047 
 303   0.0000       2.965602        80.6981 
 304   0.0000       2.975561        80.9691 
 305   0.0000       2.986376        81.2634 
 306   0.0000       2.994482        81.4840 
 307   0.0000       3.012458        81.9731 
 308   0.0000       3.019307        82.1595 
 309   0.0000       3.036344        82.6231 
 310   0.0000       3.045791        82.8802 
 311   0.0000       3.049329        82.9765 
 312   0.0000       3.061966        83.3203 
 313   0.0000       3.080181        83.8160 
 314   0.0000       3.096362        84.2563 
 315   0.0000       3.110315        84.6360 
 316   0.0000       3.120650        84.9172 
 317   0.0000       3.141131        85.4745 
 318   0.0000       3.150399        85.7267 
 319   0.0000       3.155036        85.8529 
 320   0.0000       3.175536        86.4107 
 321   0.0000       3.210824        87.3710 
 322   0.0000       3.218596        87.5824 
 323   0.0000       3.229783        87.8869 
 324   0.0000       3.235932        88.0542 
 325   0.0000       3.260028        88.7099 
 326   0.0000       3.273350        89.0724 
 327   0.0000       3.336643        90.7947 
 328   0.0000       3.468525        94.3834 
 329   0.0000       3.552040        96.6559 
 330   0.0000       3.654161        99.4348 

                    ********************************
                    * MULLIKEN POPULATION ANALYSIS *
                    ********************************

-----------------------
MULLIKEN ATOMIC CHARGES
-----------------------
   0 C :   -0.015388
   1 H :    0.022736
   2 C :   -0.124019
   3 C :   -0.044338
   4 H :    0.018620
   5 H :    0.027378
   6 C :    0.196147
   7 O :   -0.421755
   8 C :    0.214374
   9 C :   -0.038295
  10 H :    0.033768
  11 H :    0.012003
  12 C :   -0.200698
  13 C :    0.024057
  14 H :    0.020446
  15 H :    0.023534
  16 H :    0.023302
  17 C :    0.146514
  18 N :   -0.303286
  19 H :    0.112547
  20 C :   -0.067223
  21 C :    0.003643
  22 H :    0.025464
  23 H :    0.038590
  24 H :    0.018206
  25 C :   -0.013245
  26 H :    0.018120
  27 H :    0.032710
  28 H :    0.027202
  29 H :    0.017317
  30 H :   -0.000338
  31 H :    0.005153
  32 H :    0.029545
  33 H :    0.014629
  34 H :    0.003533
  35 H :    0.000308
  36 H :    0.001634
  37 H :    0.044332
  38 H :    0.017827
  39 H :    0.027112
  40 H :    0.027836
Sum of atomic charges:    0.0000000

--------------------------------
MULLIKEN REDUCED ORBITAL CHARGES
--------------------------------
  0 C s       :     2.985641  s :     2.985641
      pz      :     1.002175  p :     3.000880
      px      :     1.001422
      py      :     0.997283
      dz2     :     0.003411  d :     0.028868
      dxz     :     0.005802
      dyz     :     0.008317
      dx2y2   :     0.004747
      dxy     :     0.006590
  1 H s       :     0.953630  s :     0.953630
      pz      :     0.008549  p :     0.023634
      px      :     0.005283
      py      :     0.009802
  2 C s       :     3.069734  s :     3.069734
      pz      :     0.997802  p :     3.017134
      px      :     1.014176
      py      :     1.005156
      dz2     :     0.006136  d :     0.037152
      dxz     :     0.006903
      dyz     :     0.010227
      dx2y2   :     0.005573
      dxy     :     0.008312
  3 C s       :     3.021325  s :     3.021325
      pz      :     0.978651  p :     2.987725
      px      :     1.025942
      py      :     0.983132
      dz2     :     0.005896  d :     0.035288
      dxz     :     0.006188
      dyz     :     0.010372
      dx2y2   :     0.005114
      dxy     :     0.007718
  4 H s       :     0.959040  s :     0.959040
      pz      :     0.008498  p :     0.022339
      px      :     0.004782
      py      :     0.009060
  5 H s       :     0.950224  s :     0.950224
      pz      :     0.004794  p :     0.022398
      px      :     0.011370
      py      :     0.006233
  6 C s       :     2.978310  s :     2.978310
      pz      :     0.899706  p :     2.762817
      px      :     1.027396
      py      :     0.835715
      dz2     :     0.011952  d :     0.062725
      dxz     :     0.008535
      dyz     :     0.017454
      dx2y2   :     0.012054
      dxy     :     0.012730
  7 O s       :     3.772385  s :     3.772385
      pz      :     1.613960  p :     4.633327
      px      :     1.731219
      py      :     1.288149
      dz2     :     0.002495  d :     0.016043
      dxz     :     0.002442
      dyz     :     0.005768
      dx2y2   :     0.002313
      dxy     :     0.003025
  8 C s       :     2.980325  s :     2.980325
      pz      :     0.965545  p :     2.741203
      px      :     0.917320
      py      :     0.858339
      dz2     :     0.010199  d :     0.064098
      dxz     :     0.008484
      dyz     :     0.013972
      dx2y2   :     0.015930
      dxy     :     0.015513
  9 C s       :     3.022497  s :     3.022497
      pz      :     1.005704  p :     2.982122
      px      :     0.970760
      py      :     1.005658
      dz2     :     0.006494  d :     0.033676
      dxz     :     0.006591
      dyz     :     0.008437
      dx2y2   :     0.006919
      dxy     :     0.005235
 10 H s       :     0.941910  s :     0.941910
      pz      :     0.007576  p :     0.024322
      px      :     0.004393
      py      :     0.012353
 11 H s       :     0.965342  s :     0.965342
      pz      :     0.005184  p :     0.022655
      px      :     0.006151
      py      :     0.011320
 12 C s       :     3.132462  s :     3.132462
      pz      :     1.019952  p :     3.025126
      px      :     1.004692
      py      :     1.000482
      dz2     :     0.008483  d :     0.043110
      dxz     :     0.008991
      dyz     :     0.009272
      dx2y2   :     0.005671
      dxy     :     0.010692
 13 C s       :     2.972246  s :     2.972246
      pz      :     0.992428  p :     2.975287
      px      :     1.000625
      py      :     0.982234
      dz2     :     0.006860  d :     0.028409
      dxz     :     0.004670
      dyz     :     0.004856
      dx2y2   :     0.002830
      dxy     :     0.009194
 14 H s       :     0.955879  s :     0.955879
      pz      :     0.006875  p :     0.023675
      px      :     0.010373
      py      :     0.006427
 15 H s       :     0.952315  s :     0.952315
      pz      :     0.004989  p :     0.024152
      px      :     0.010464
      py      :     0.008699
 16 H s       :     0.952688  s :     0.952688
      pz      :     0.013089  p :     0.024011
      px      :     0.005931
      py      :     0.004991
 17 C s       :     2.966990  s :     2.966990
      pz      :     0.962745  p :     2.834968
      px      :     1.004271
      py      :     0.867953
      dz2     :     0.009434  d :     0.051528
      dxz     :     0.011356
      dyz     :     0.009583
      dx2y2   :     0.009929
      dxy     :     0.011226
 18 N s       :     3.464691  s :     3.464691
      pz      :     1.492266  p :     3.815137
      px      :     1.216621
      py      :     1.106250
      dz2     :     0.002796  d :     0.023459
      dxz     :     0.004593
      dyz     :     0.005630
      dx2y2   :     0.003364
      dxy     :     0.007076
 19 H s       :     0.843764  s :     0.843764
      pz      :     0.015602  p :     0.043689
      px      :     0.018457
      py      :     0.009631
 20 C s       :     3.098132  s :     3.098132
      pz      :     1.007058  p :     2.908301
      px      :     0.960058
      py      :     0.941185
      dz2     :     0.008390  d :     0.060791
      dxz     :     0.013972
      dyz     :     0.014331
      dx2y2   :     0.006964
      dxy     :     0.017134
 21 C s       :     2.988787  s :     2.988787
      pz      :     0.993147  p :     2.980117
      px      :     1.001244
      py      :     0.985726
      dz2     :     0.003163  d :     0.027453
      dxz     :     0.007167
      dyz     :     0.006820
      dx2y2   :     0.001431
      dxy     :     0.008873
 22 H s       :     0.950911  s :     0.950911
      pz      :     0.006080  p :     0.023625
      px      :     0.009004
      py      :     0.008540
 23 H s       :     0.937904  s :     0.937904
      pz      :     0.009948  p :     0.023506
      px      :     0.007008
      py      :     0.006549
 24 H s       :     0.957687  s :     0.957687
      pz      :     0.007408  p :     0.024106
      px      :     0.009335
      py      :     0.007364
 25 C s       :     2.994490  s :     2.994490
      pz      :     0.996235  p :     2.991568
      px      :     0.991529
      py      :     1.003804
      dz2     :     0.002898  d :     0.027187
      dxz     :     0.007616
      dyz     :     0.007405
      dx2y2   :     0.001149
      dxy     :     0.008119
 26 H s       :     0.958191  s :     0.958191
      pz      :     0.007734  p :     0.023689
      px      :     0.008994
      py      :     0.006961
 27 H s       :     0.943272  s :     0.943272
      pz      :     0.007349  p :     0.024018
      px      :     0.007202
      py      :     0.009467
 28 H s       :     0.949056  s :     0.949056
      pz      :     0.005443  p :     0.023742
      px      :     0.008989
      py      :     0.009310
 29 H s       :     0.962675  s :     0.962675
      pz      :     0.006847  p :     0.020008
      px      :     0.007997
      py      :     0.005164
 30 H s       :     0.979360  s :     0.979360
      pz      :     0.012390  p :     0.020978
      px      :     0.005593
      py      :     0.002995
 31 H s       :     0.973744  s :     0.973744
      pz      :     0.007933  p :     0.021103
      px      :     0.008773
      py      :     0.004397
 32 H s       :     0.948386  s :     0.948386
      pz      :     0.006170  p :     0.022069
      px      :     0.010487
      py      :     0.005412
 33 H s       :     0.964602  s :     0.964602
      pz      :     0.008206  p :     0.020769
      px      :     0.003987
      py      :     0.008575
 34 H s       :     0.975100  s :     0.975100
      pz      :     0.013008  p :     0.021367
      px      :     0.004720
      py      :     0.003638
 35 H s       :     0.978693  s :     0.978693
      pz      :     0.011607  p :     0.020999
      px      :     0.006093
      py      :     0.003299
 36 H s       :     0.975725  s :     0.975725
      pz      :     0.004011  p :     0.022641
      px      :     0.014095
      py      :     0.004534
 37 H s       :     0.933170  s :     0.933170
      pz      :     0.007856  p :     0.022498
      px      :     0.004608
      py      :     0.010034
 38 H s       :     0.959889  s :     0.959889
      pz      :     0.004924  p :     0.022284
      px      :     0.011012
      py      :     0.006348
 39 H s       :     0.949045  s :     0.949045
      pz      :     0.005864  p :     0.023843
      px      :     0.011595
      py      :     0.006384
 40 H s       :     0.948586  s :     0.948586
      pz      :     0.010771  p :     0.023578
      px      :     0.006599
      py      :     0.006208


                     *******************************
                     * LOEWDIN POPULATION ANALYSIS *
                     *******************************

----------------------
LOEWDIN ATOMIC CHARGES
----------------------
   0 C :   -0.061765
   1 H :    0.022069
   2 C :   -0.047934
   3 C :   -0.046678
   4 H :    0.024567
   5 H :    0.025279
   6 C :    0.074927
   7 O :   -0.177904
   8 C :    0.073809
   9 C :   -0.054047
  10 H :    0.020946
  11 H :    0.022462
  12 C :   -0.048082
  13 C :   -0.051828
  14 H :    0.021423
  15 H :    0.022755
  16 H :    0.021973
  17 C :    0.026397
  18 N :   -0.101610
  19 H :    0.051567
  20 C :    0.007543
  21 C :   -0.060777
  22 H :    0.024523
  23 H :    0.026071
  24 H :    0.019570
  25 C :   -0.072352
  26 H :    0.020955
  27 H :    0.022571
  28 H :    0.026347
  29 H :    0.018586
  30 H :   -0.000791
  31 H :    0.016011
  32 H :    0.019777
  33 H :    0.016085
  34 H :    0.004514
  35 H :    0.004080
  36 H :    0.001622
  37 H :    0.024627
  38 H :    0.014866
  39 H :    0.023910
  40 H :    0.023936

-------------------------------
LOEWDIN REDUCED ORBITAL CHARGES
-------------------------------
  0 C s       :     2.829073  s :     2.829073
      pz      :     1.056483  p :     3.159106
      px      :     1.054464
      py      :     1.048158
      dz2     :     0.008206  d :     0.073587
      dxz     :     0.014934
      dyz     :     0.022047
      dx2y2   :     0.010668
      dxy     :     0.017731
  1 H s       :     0.911595  s :     0.911595
      pz      :     0.023869  p :     0.066336
      px      :     0.014772
      py      :     0.027695
  2 C s       :     2.831365  s :     2.831365
      pz      :     1.039972  p :     3.126201
      px      :     1.043525
      py      :     1.042704
      dz2     :     0.013640  d :     0.090368
      dxz     :     0.017197
      dyz     :     0.026223
      dx2y2   :     0.012207
      dxy     :     0.021101
  3 C s       :     2.836973  s :     2.836973
      pz      :     1.034764  p :     3.121674
      px      :     1.048670
      py      :     1.038240
      dz2     :     0.013416  d :     0.088031
      dxz     :     0.015898
      dyz     :     0.027002
      dx2y2   :     0.011628
      dxy     :     0.020087
  4 H s       :     0.908678  s :     0.908678
      pz      :     0.025519  p :     0.066755
      px      :     0.014584
      py      :     0.026652
  5 H s       :     0.907265  s :     0.907265
      pz      :     0.015277  p :     0.067456
      px      :     0.033967
      py      :     0.018212
  6 C s       :     2.840797  s :     2.840797
      pz      :     0.966442  p :     2.940301
      px      :     1.067879
      py      :     0.905980
      dz2     :     0.028220  d :     0.143975
      dxz     :     0.020184
      dyz     :     0.039879
      dx2y2   :     0.024926
      dxy     :     0.030765
  7 O s       :     3.455892  s :     3.455892
      pz      :     1.643685  p :     4.692969
      px      :     1.725277
      py      :     1.324006
      dz2     :     0.003930  d :     0.029043
      dxz     :     0.003349
      dyz     :     0.010741
      dx2y2   :     0.004903
      dxy     :     0.006121
  8 C s       :     2.838910  s :     2.838910
      pz      :     1.042092  p :     2.940258
      px      :     0.991105
      py      :     0.907061
      dz2     :     0.025305  d :     0.147023
      dxz     :     0.017745
      dyz     :     0.033288
      dx2y2   :     0.038504
      dxy     :     0.032180
  9 C s       :     2.838080  s :     2.838080
[...]
      px      :     0.014570
      py      :     0.004237
 37 H s       :     0.930894  s :     0.930894
      pz      :     0.007481  p :     0.022326
      px      :     0.004321
      py      :     0.010523
 38 H s       :     0.964225  s :     0.964225
      pz      :     0.004234  p :     0.021780
      px      :     0.011671
      py      :     0.005875
 39 H s       :     0.946431  s :     0.946431
      pz      :     0.005182  p :     0.023150
      px      :     0.012196
      py      :     0.005772
 40 H s       :     0.946835  s :     0.946835
      pz      :     0.011913  p :     0.023211
      px      :     0.005674
      py      :     0.005624


                     *******************************
                     * LOEWDIN POPULATION ANALYSIS *
                     *******************************

----------------------
LOEWDIN ATOMIC CHARGES
----------------------
   0 C :   -0.066504
   1 H :    0.023097
   2 C :   -0.050863
   3 C :   -0.050678
   4 H :    0.025464
   5 H :    0.026009
   6 C :    0.069173
   7 O :   -0.172995
   8 C :    0.070281
   9 C :   -0.056457
  10 H :    0.024411
  11 H :    0.024791
  12 C :   -0.050625
  13 C :   -0.057887
  14 H :    0.023071
  15 H :    0.025050
  16 H :    0.023971
  17 C :    0.023442
  18 N :   -0.104742
  19 H :    0.053050
  20 C :    0.005854
  21 C :   -0.065385
  22 H :    0.027743
  23 H :    0.029200
  24 H :    0.022091
  25 C :   -0.078595
  26 H :    0.022621
  27 H :    0.025437
  28 H :    0.027714
  29 H :    0.019992
  30 H :    0.000242
  31 H :    0.017402
  32 H :    0.022303
  33 H :    0.017844
  34 H :    0.005315
  35 H :    0.003978
  36 H :    0.001429
  37 H :    0.026464
  38 H :    0.016566
  39 H :    0.025469
  40 H :    0.025258

-------------------------------
LOEWDIN REDUCED ORBITAL CHARGES
-------------------------------
  0 C s       :     2.839302  s :     2.839302
      pz      :     1.055813  p :     3.155410
      px      :     1.053217
      py      :     1.046380
      dz2     :     0.011921  d :     0.071792
      dxz     :     0.010046
      dyz     :     0.020299
      dx2y2   :     0.014103
      dxy     :     0.015424
  1 H s       :     0.912712  s :     0.912712
      pz      :     0.022331  p :     0.064191
      px      :     0.013000
      py      :     0.028860
  2 C s       :     2.836877  s :     2.836877
      pz      :     1.038394  p :     3.124912
      px      :     1.041620
      py      :     1.044898
      dz2     :     0.017563  d :     0.089074
      dxz     :     0.012592
      dyz     :     0.025502
      dx2y2   :     0.014824
      dxy     :     0.018592
  3 C s       :     2.841530  s :     2.841530
      pz      :     1.032899  p :     3.121204
      px      :     1.049812
      py      :     1.038493
      dz2     :     0.017432  d :     0.087943
      dxz     :     0.011603
      dyz     :     0.026626
      dx2y2   :     0.014326
      dxy     :     0.017958
  4 H s       :     0.909766  s :     0.909766
      pz      :     0.024482  p :     0.064769
      px      :     0.013099
      py      :     0.027188
  5 H s       :     0.908802  s :     0.908802
      pz      :     0.012916  p :     0.065189
      px      :     0.035791
      py      :     0.016482
  6 C s       :     2.841630  s :     2.841630
      pz      :     0.965850  p :     2.943195
      px      :     1.072232
      py      :     0.905113
      dz2     :     0.032121  d :     0.146003
      dxz     :     0.016666
      dyz     :     0.039668
      dx2y2   :     0.026498
      dxy     :     0.031050
  7 O s       :     3.450369  s :     3.450369
      pz      :     1.652098  p :     4.693105
      px      :     1.727413
      py      :     1.313594
      dz2     :     0.004071  d :     0.029522
      dxz     :     0.003154
      dyz     :     0.010623
      dx2y2   :     0.005001
      dxy     :     0.006672
  8 C s       :     2.840655  s :     2.840655
      pz      :     1.047232  p :     2.941028
      px      :     0.990764
      py      :     0.903032
      dz2     :     0.025109  d :     0.148036
      dxz     :     0.016268
      dyz     :     0.033813
      dx2y2   :     0.039114
      dxy     :     0.033732
  9 C s       :     2.843684  s :     2.843684
      pz      :     1.039892  p :     3.126997
      px      :     1.029006
      py      :     1.058099
      dz2     :     0.017034  d :     0.085776
      dxz     :     0.015483
      dyz     :     0.021328
      dx2y2   :     0.019005
      dxy     :     0.012926
 10 H s       :     0.906001  s :     0.906001
      pz      :     0.024888  p :     0.069588
      px      :     0.014779
      py      :     0.029921
 11 H s       :     0.909395  s :     0.909395
      pz      :     0.015902  p :     0.065814
      px      :     0.019043
      py      :     0.030869
 12 C s       :     2.840926  s :     2.840926
      pz      :     1.037893  p :     3.107204
      px      :     1.039537
      py      :     1.029774
      dz2     :     0.019400  d :     0.102494
      dxz     :     0.021423
      dyz     :     0.022241
      dx2y2   :     0.011730
      dxy     :     0.027701
 13 C s       :     2.838903  s :     2.838903
      pz      :     1.049522  p :     3.146918
      px      :     1.058603
      py      :     1.038794
      dz2     :     0.017137  d :     0.072066
      dxz     :     0.010679
      dyz     :     0.014222
      dx2y2   :     0.007015
      dxy     :     0.023013
 14 H s       :     0.912610  s :     0.912610
      pz      :     0.017223  p :     0.064319
      px      :     0.028415
      py      :     0.018681
 15 H s       :     0.910042  s :     0.910042
      pz      :     0.012736  p :     0.064908
      px      :     0.027270
      py      :     0.024902
 16 H s       :     0.911264  s :     0.911264
      pz      :     0.035823  p :     0.064766
      px      :     0.014590
      py      :     0.014352
 17 C s       :     2.835928  s :     2.835928
      pz      :     1.044659  p :     3.019140
      px      :     1.032775
      py      :     0.941706
      dz2     :     0.020096  d :     0.121490
      dxz     :     0.030132
      dyz     :     0.020294
      dx2y2   :     0.022546
      dxy     :     0.028423
 18 N s       :     3.112998  s :     3.112998
      pz      :     1.474529  p :     3.939433
      px      :     1.306190
      py      :     1.158715
      dz2     :     0.005170  d :     0.052310
      dxz     :     0.009748
      dyz     :     0.012356
      dx2y2   :     0.008431
      dxy     :     0.016605
 19 H s       :     0.821745  s :     0.821745
      pz      :     0.051142  p :     0.125206
      px      :     0.046486
      py      :     0.027578
 20 C s       :     2.835196  s :     2.835196
      pz      :     1.028394  p :     3.021477
      px      :     0.995981
      py      :     0.997102
      dz2     :     0.016079  d :     0.137473
      dxz     :     0.035745
      dyz     :     0.030113
      dx2y2   :     0.014456
      dxy     :     0.041080
 21 C s       :     2.844147  s :     2.844147
      pz      :     1.056719  p :     3.150888
      px      :     1.054396
      py      :     1.039773
      dz2     :     0.005361  d :     0.070350
      dxz     :     0.021431
      dyz     :     0.017201
      dx2y2   :     0.004755
      dxy     :     0.021602
 22 H s       :     0.907499  s :     0.907499
      pz      :     0.016756  p :     0.064758
      px      :     0.023051
      py      :     0.024951
 23 H s       :     0.905596  s :     0.905596
      pz      :     0.026851  p :     0.065204
      px      :     0.022799
      py      :     0.015554
 24 H s       :     0.913275  s :     0.913275
      pz      :     0.023891  p :     0.064634
      px      :     0.021372
      py      :     0.019370
 25 C s       :     2.848326  s :     2.848326
      pz      :     1.050519  p :     3.160364
      px      :     1.051391
      py      :     1.058454
      dz2     :     0.007166  d :     0.069905
      dxz     :     0.020891
      dyz     :     0.017396
      dx2y2   :     0.003626
      dxy     :     0.020825
 26 H s       :     0.912728  s :     0.912728
      pz      :     0.027411  p :     0.064651
      px      :     0.018667
      py      :     0.018573
 27 H s       :     0.909056  s :     0.909056
      pz      :     0.017684  p :     0.065507
      px      :     0.019933
      py      :     0.027890
 28 H s       :     0.906919  s :     0.906919
      pz      :     0.016345  p :     0.065367
      px      :     0.025199
      py      :     0.023823
 29 H s       :     0.917416  s :     0.917416
      pz      :     0.026426  p :     0.062592
      px      :     0.018961
      py      :     0.017205
 30 H s       :     0.935249  s :     0.935249
      pz      :     0.034146  p :     0.064509
      px      :     0.019409
      py      :     0.010954
 31 H s       :     0.919928  s :     0.919928
      pz      :     0.023157  p :     0.062670
      px      :     0.025257
      py      :     0.014256
 32 H s       :     0.909638  s :     0.909638
      pz      :     0.019539  p :     0.068059
      px      :     0.029942
      py      :     0.018578
 33 H s       :     0.920156  s :     0.920156
      pz      :     0.023488  p :     0.061999
      px      :     0.012990
      py      :     0.025521
 34 H s       :     0.931432  s :     0.931432
      pz      :     0.036712  p :     0.063253
      px      :     0.014105
      py      :     0.012435
 35 H s       :     0.932609  s :     0.932609
      pz      :     0.036009  p :     0.063414
      px      :     0.016150
      py      :     0.011255
 36 H s       :     0.930269  s :     0.930269
      pz      :     0.010904  p :     0.068302
      px      :     0.041935
      py      :     0.015462
 37 H s       :     0.907239  s :     0.907239
      pz      :     0.023446  p :     0.066297
      px      :     0.012935
      py      :     0.029916
 38 H s       :     0.919215  s :     0.919215
      pz      :     0.013401  p :     0.064219
      px      :     0.034053
      py      :     0.016765
 39 H s       :     0.910181  s :     0.910181
      pz      :     0.013271  p :     0.064350
      px      :     0.034695
      py      :     0.016384
 40 H s       :     0.910238  s :     0.910238
      pz      :     0.032780  p :     0.064505
      px      :     0.015933
      py      :     0.015791


                      *****************************
                      * MAYER POPULATION ANALYSIS *
                      *****************************

  NA   - Mulliken gross atomic population
  ZA   - Total nuclear charge
  QA   - Mulliken gross atomic charge
  VA   - Mayer's total valence
  BVA  - Mayer's bonded valence
  FA   - Mayer's free valence

  ATOM       NA         ZA         QA         VA         BVA        FA
  0 C      6.0316     6.0000    -0.0316     3.9959     3.9959    -0.0000
  1 H      0.9743     1.0000     0.0257     0.9879     0.9879    -0.0000
  2 C      6.1159     6.0000    -0.1159     4.0841     4.0841    -0.0000
  3 C      6.0520     6.0000    -0.0520     4.0372     4.0372    -0.0000
  4 H      0.9812     1.0000     0.0188     0.9820     0.9820     0.0000
  5 H      0.9717     1.0000     0.0283     0.9911     0.9911     0.0000
  6 C      5.8112     6.0000     0.1888     3.9754     3.9754     0.0000
  7 O      8.4145     8.0000    -0.4145     2.0674     2.0674    -0.0000
  8 C      5.7904     6.0000     0.2096     4.0268     4.0268    -0.0000
  9 C      6.0536     6.0000    -0.0536     3.9512     3.9512    -0.0000
 10 H      0.9643     1.0000     0.0357     1.0064     1.0064    -0.0000
 11 H      0.9841     1.0000     0.0159     0.9915     0.9915     0.0000
 12 C      6.1759     6.0000    -0.1759     4.0929     4.0929     0.0000
 13 C      6.0020     6.0000    -0.0020     3.9672     3.9672    -0.0000
 14 H      0.9751     1.0000     0.0249     0.9907     0.9907    -0.0000
 15 H      0.9711     1.0000     0.0289     0.9928     0.9928    -0.0000
 16 H      0.9709     1.0000     0.0291     0.9902     0.9902    -0.0000
 17 C      5.8709     6.0000     0.1291     3.9485     3.9485     0.0000
 18 N      7.3034     7.0000    -0.3034     3.0527     3.0527    -0.0000
 19 H      0.8836     1.0000     0.1164     0.9870     0.9870     0.0000
 20 C      6.0512     6.0000    -0.0512     4.1520     4.1520     0.0000
 21 C      6.0248     6.0000    -0.0248     3.9715     3.9715    -0.0000
 22 H      0.9680     1.0000     0.0320     0.9910     0.9910     0.0000
 23 H      0.9536     1.0000     0.0464     0.9938     0.9938     0.0000
 24 H      0.9756     1.0000     0.0244     0.9962     0.9962     0.0000
 25 C      6.0333     6.0000    -0.0333     3.9215     3.9215     0.0000
 26 H      0.9783     1.0000     0.0217     0.9992     0.9992     0.0000
 27 H      0.9617     1.0000     0.0383     0.9922     0.9922     0.0000
 28 H      0.9691     1.0000     0.0309     0.9913     0.9913    -0.0000
 29 H      0.9785     1.0000     0.0215     0.9744     0.9744    -0.0000
 30 H      0.9967     1.0000     0.0033     0.9820     0.9820     0.0000
 31 H      0.9915     1.0000     0.0085     0.9915     0.9915     0.0000
 32 H      0.9709     1.0000     0.0291     1.0001     1.0001     0.0000
 33 H      0.9811     1.0000     0.0189     0.9901     0.9901    -0.0000
 34 H      0.9950     1.0000     0.0050     0.9833     0.9833    -0.0000
 35 H      1.0006     1.0000    -0.0006     0.9798     0.9798    -0.0000
 36 H      0.9937     1.0000     0.0063     1.0254     1.0254    -0.0000
 37 H      0.9532     1.0000     0.0468     0.9885     0.9885    -0.0000
 38 H      0.9860     1.0000     0.0140     0.9836     0.9836    -0.0000
 39 H      0.9696     1.0000     0.0304     0.9894     0.9894    -0.0000
 40 H      0.9700     1.0000     0.0300     0.9857     0.9857    -0.0000

  Mayer bond orders larger than 0.100000
B(  0-C ,  1-H ) :   0.9729 B(  0-C ,  2-C ) :   1.0896 B(  0-C , 39-H ) :   0.9737 
B(  0-C , 40-H ) :   0.9735 B(  2-C ,  3-C ) :   1.0633 B(  2-C , 37-H ) :   0.9536 
B(  2-C , 38-H ) :   0.9477 B(  3-C ,  4-H ) :   0.9445 B(  3-C ,  5-H ) :   0.9488 
B(  3-C ,  6-C ) :   1.0820 B(  6-C ,  7-O ) :   0.9771 B(  6-C , 35-H ) :   0.9412 
B(  6-C , 36-H ) :   0.9270 B(  7-O ,  8-C ) :   0.9989 B(  8-C ,  9-C ) :   1.0663 
B(  8-C , 33-H ) :   0.9546 B(  8-C , 34-H ) :   0.9494 B(  9-C , 10-H ) :   0.9425 
B(  9-C , 11-H ) :   0.9410 B(  9-C , 12-C ) :   1.0070 B( 12-C , 13-C ) :   1.0623 
B( 12-C , 17-C ) :   1.0370 B( 12-C , 32-H ) :   0.9350 B( 13-C , 14-H ) :   0.9681 
B( 13-C , 15-H ) :   0.9695 B( 13-C , 16-H ) :   0.9684 B( 17-C , 18-N ) :   1.0220 
B( 17-C , 30-H ) :   0.9440 B( 17-C , 31-H ) :   0.9398 B( 18-N , 19-H ) :   0.9254 
B( 18-N , 20-C ) :   1.0105 B( 20-C , 21-C ) :   1.0704 B( 20-C , 25-C ) :   1.0404 
B( 20-C , 29-H ) :   0.9388 B( 21-C , 22-H ) :   0.9712 B( 21-C , 23-H ) :   0.9708 
B( 21-C , 24-H ) :   0.9659 B( 25-C , 26-H ) :   0.9663 B( 25-C , 27-H ) :   0.9683 
B( 25-C , 28-H ) :   0.9666 

-------
TIMINGS
-------

Total SCF time: 0 days 0 hours 3 min 12 sec 

Total time                  ....     192.013 sec
Sum of individual times     ....     191.731 sec  ( 99.9%)

Fock matrix formation       ....     187.260 sec  ( 97.5%)
  XC integration            ....       7.733 sec  (  4.1% of F)
    Basis function eval.    ....       2.409 sec  ( 31.2% of XC)
    Density eval.           ....       1.642 sec  ( 21.2% of XC)
    XC-Functional eval.     ....       1.649 sec  ( 21.3% of XC)
    XC-Potential eval.      ....       1.821 sec  ( 23.5% of XC)
Diagonalization             ....       0.020 sec  (  0.0%)
Density matrix formation    ....       0.014 sec  (  0.0%)
Population analysis         ....       0.016 sec  (  0.0%)
Initial guess               ....       0.017 sec  (  0.0%)
Orbital Transformation      ....       0.000 sec  (  0.0%)
Orbital Orthonormalization  ....       0.013 sec  (  0.0%)
DIIS solution               ....       0.005 sec  (  0.0%)
SOSCF solution              ....       0.064 sec  (  0.0%)
Grid generation             ....       4.336 sec  (  2.3%)


-------------------------------------------------------------------------------
                          DFT DISPERSION CORRECTION                            
                                                                               
                              DFTD3 V3.1  Rev 1                                
                              USING zero damping                               
-------------------------------------------------------------------------------
The omegaB97X-D3 functional is recognized. Fit by Chai et al.
Active option DFTDOPT                   ...         3   

molecular C6(AA) [au] = 11164.423449 


            DFT-D V3
 parameters
 s6 scaling factor         :     1.0000 
 rs6 scaling factor        :     1.2810 
 s8 scaling factor         :     1.0000 
 rs8 scaling factor        :     1.0940 
 Damping factor alpha6     :    14.0000 
 Damping factor alpha8     :    16.0000 
 ad hoc parameters k1-k3   :    16.0000     1.3333    -4.0000 

 Edisp/kcal,au: -11.380311989397  -0.018135679613 
 E6   /kcal   :  -5.390372791 
 E8   /kcal   :  -5.989939198 
 % E8         :  52.634226581 

-------------------------   ----------------
Dispersion correction           -0.018135680
-------------------------   ----------------


-------------------------   --------------------
FINAL SINGLE POINT ENERGY      -602.933961475246
-------------------------   --------------------

                                *** OPTIMIZATION RUN DONE ***

                            ***************************************
                            *     ORCA property calculations      *
                            ***************************************

                                    ---------------------
                                    Active property flags
                                    ---------------------
   (+) Dipole Moment


------------------------------------------------------------------------------
                       ORCA ELECTRIC PROPERTIES CALCULATION
------------------------------------------------------------------------------

Dipole Moment Calculation                       ... on
Quadrupole Moment Calculation                   ... off
Polarizability Calculation                      ... off
GBWName                                         ... 062530477.gbw
Electron density file                           ... 062530477.scfp
The origin for moment calculation is the CENTER OF MASS  = (-0.010216, -0.005481 -0.000972)

-------------
DIPOLE MOMENT
-------------
                                X             Y             Z
Electronic contribution:     -2.77270       5.69583       2.07104
Nuclear contribution   :      3.25924      -5.87538      -1.96473
                        -----------------------------------------
Total Dipole Moment    :      0.48654      -0.17955       0.10631
                        -----------------------------------------
Magnitude (a.u.)       :      0.52940
Magnitude (Debye)      :      1.34562



--------------------
Rotational spectrum 
--------------------
 
Rotational constants in cm-1:     0.019111     0.015125     0.010191 
Rotational constants in MHz :   572.941549   453.442811   305.508800 

 Dipole components along the rotational axes: 
x,y,z [a.u.] :     0.488390    -0.175156     0.105141 
x,y,z [Debye]:     1.241390    -0.445210     0.267248 

 

Timings for individual modules:

Sum of individual times         ...     4736.151 sec (=  78.936 min)
GTO integral calculation        ...        4.322 sec (=   0.072 min)   0.1 %
SCF iterations                  ...     3046.132 sec (=  50.769 min)  64.3 %
SCF Gradient evaluation         ...     1682.433 sec (=  28.041 min)  35.5 %
Geometry relaxation             ...        3.264 sec (=   0.054 min)   0.1 %
                             ****ORCA TERMINATED NORMALLY****
TOTAL RUN TIME: 0 days 1 hours 18 minutes 59 seconds 527 msec
