
                                 *****************
                                 * O   R   C   A *
                                 *****************

           --- An Ab Initio, DFT and Semiempirical electronic structure package ---

                  #######################################################
                  #                        -***-                        #
                  #          Department of theory and spectroscopy      #
                  #               Directorship: Frank Neese             #
                  #        Max Planck Institute fuer Kohlenforschung    #
                  #                Kaiser Wilhelm Platz 1               #
                  #                 D-45470 Muelheim/Ruhr               #
                  #                      Germany                        #
                  #                                                     #
                  #                  All rights reserved                #
                  #                        -***-                        #
                  #######################################################


                         Program Version 4.2.0 -  RELEASE  -


 With contributions from (in alphabetic order):
   Daniel Aravena         : Magnetic Suceptibility
   Michael Atanasov       : Ab Initio Ligand Field Theory (pilot matlab implementation)
   Alexander A. Auer      : GIAO ZORA, VPT2
   Ute Becker             : Parallelization
   Giovanni Bistoni       : ED, misc. LED, open-shell LED, HFLED
   Martin Brehm           : Molecular dynamics
   Dmytro Bykov           : SCF Hessian
   Vijay G. Chilkuri      : MRCI spin determinant printing, contributions to CSF-ICE
   Dipayan Datta          : RHF DLPNO-CCSD density
   Achintya Kumar Dutta   : EOM-CC, STEOM-CC
   Dmitry Ganyushin       : Spin-Orbit,Spin-Spin,Magnetic field MRCI
   Miquel Garcia          : C-PCM Hessian, Gaussian charge scheme
   Yang Guo               : DLPNO-NEVPT2, CIM, IAO-localization
   Andreas Hansen         : Spin unrestricted coupled pair/coupled cluster methods
   Benjamin Helmich-Paris : CASSCF linear response (MC-RPA)
   Lee Huntington         : MR-EOM, pCC
   Robert Izsak           : Overlap fitted RIJCOSX, COSX-SCS-MP3, EOM
   Christian Kollmar      : KDIIS, OOCD, Brueckner-CCSD(T), CCSD density
   Simone Kossmann        : Meta GGA functionals, TD-DFT gradient, OOMP2, MP2 Hessian
   Martin Krupicka        : AUTO-CI
   Lucas Lang             : DCDCAS
   Dagmar Lenk            : GEPOL surface, SMD
   Dimitrios Liakos       : Extrapolation schemes; Compound Job, initial MDCI parallelization
   Dimitrios Manganas     : Further ROCIS development; embedding schemes
   Dimitrios Pantazis     : SARC Basis sets
   Taras Petrenko         : DFT Hessian,TD-DFT gradient, ASA, ECA, R-Raman, ABS, FL, XAS/XES, NRVS
   Peter Pinski           : DLPNO-MP2, DLPNO-MP2 Gradient
   Christoph Reimann      : Effective Core Potentials
   Marius Retegan         : Local ZFS, SOC
   Christoph Riplinger    : Optimizer, TS searches, QM/MM, DLPNO-CCSD(T), (RO)-DLPNO pert. Triples
   Tobias Risthaus        : Range-separated hybrids, TD-DFT gradient, RPA, STAB
   Michael Roemelt        : Original ROCIS implementation
   Masaaki Saitow         : Open-shell DLPNO-CCSD energy and density
   Barbara Sandhoefer     : DKH picture change effects
   Avijit Sen             : IP-ROCIS
   Kantharuban Sivalingam : CASSCF convergence, NEVPT2, FIC-MRCI
   Bernardo de Souza      : ESD, SOC TD-DFT
   Georgi Stoychev        : AutoAux, RI-MP2 NMR
   Willem Van den Heuvel  : Paramagnetic NMR
   Boris Wezisla          : Elementary symmetry handling
   Frank Wennmohs         : Technical directorship


 We gratefully acknowledge several colleagues who have allowed us to
 interface, adapt or use parts of their codes:
   Stefan Grimme, W. Hujo, H. Kruse,             : VdW corrections, initial TS optimization,
                  C. Bannwarth                     DFT functionals, gCP, sTDA/sTD-DF
   Ed Valeev, F. Pavosevic, A. Kumar             : LibInt (2-el integral package), F12 methods
   Garnet Chan, S. Sharma, J. Yang, R. Olivares  : DMRG
   Ulf Ekstrom                                   : XCFun DFT Library
   Mihaly Kallay                                 : mrcc  (arbitrary order and MRCC methods)
   Andreas Klamt, Michael Diedenhofen            : otool_cosmo (COSMO solvation model)
   Jiri Pittner, Ondrej Demel                    : Mk-CCSD
   Frank Weinhold                                : gennbo (NPA and NBO analysis)
   Christopher J. Cramer and Donald G. Truhlar   : smd solvation model
   Lars Goerigk                                  : TD-DFT with DH, B97 family of functionals
   V. Asgeirsson, H. Jonsson                     : NEB implementation
   FAccTs GmbH                                   : IRC, NEB, NEB-TS, Multilevel, MM, QM/MM, CI optimization
   S Lehtola, MJT Oliveira, MAL Marques          : LibXC Library


 Your calculation uses the libint2 library for the computation of 2-el integrals
 For citations please refer to: http://libint.valeyev.net

 Your ORCA version has been built with support for libXC version: 4.2.3
 For citations please refer to: https://tddft.org/programs/libxc/

 This ORCA versions uses:
   CBLAS   interface :  Fast vector & matrix operations
   LAPACKE interface :  Fast linear algebra routines
   SCALAPACK package :  Parallel linear algebra routines


Your calculation utilizes the atom-pairwise dispersion correction
with the zero-damping scheme (D30)
Cite in your paper:
S.Grimme, J.Antony, S.Ehrlich and H.Krieg, J.Chem.Phys., 132, (2010), 154104 
   

XCFun DFT library Copyright 2009-2010 Ulf Ekstrom and contributors.
See http://admol.org/xcfun for more information. This is free soft-
ware; see the source code for copying conditions. There is ABSOLUTELY
NO WARRANTY; not even for MERCHANTABILITY or FITNESS FOR A PARTICULAR
PURPOSE. For details see the documentation. Scientific users of this 
library should cite U. Ekstrom, L. Visscher, R. Bast, A. J. Thorvald-
sen and K. Ruud; J.Chem.Theor.Comp. 2010, DOI: 10.1021/ct100117s
XCFun Version 0.99 
----- Orbital basis set information -----
Your calculation utilizes the basis: def2-SVP
   F. Weigend and R. Ahlrichs, Phys. Chem. Chem. Phys. 7, 3297 (2005).

================================================================================
                                        WARNINGS
                       Please study these warnings very carefully!
================================================================================


WARNING: Geometry Optimization
  ===> : Switching off AutoStart
         For restart on a previous wavefunction, please use MOREAD

INFO   : the flag for use of LIBINT has been found!

================================================================================
                                       INPUT FILE
================================================================================
NAME = 018457280.inp
|  1> # ORCA input file
|  2> # -30.14274789
|  3> ! wB97X-D3 def2-SVP Opt
|  4> * xyz 0 1
|  5>    C       -2.62460        -0.56520         0.65810
|  6>    N       -1.63050        -0.72640        -0.39320
|  7>    C       -0.36000        -0.17300        -0.15650
|  8>    C        0.77860        -0.96320        -0.05130
|  9>    C        2.04680        -0.44950         0.13530
| 10>    C        2.18830         0.92260         0.23420
| 11>    C        1.08480         1.74620         0.10700
| 12>    C       -0.18620         1.22310        -0.10810
| 13>    N       -1.29200         2.05080        -0.23360
| 14>    H       -1.07090         3.00990        -0.45530
| 15>    H       -2.02180         1.66140        -0.81280
| 16>    H        1.20300         2.81910         0.15620
| 17>    H        3.16470         1.35250         0.39400
| 18>    H        2.88830        -1.11830         0.21030
| 19>    F        0.62430        -2.31360        -0.14180
| 20>    H       -1.54270        -1.70850        -0.63680
| 21>    H       -2.64130         0.47100         0.98760
| 22>    H       -2.42250        -1.19910         1.53060
| 23>    H       -3.60150        -0.83040         0.25370
| 24> *
| 25> 
| 26>                          ****END OF INPUT****
================================================================================

                       *****************************
                       * Geometry Optimization Run *
                       *****************************

Geometry optimization settings:
Update method            Update   .... BFGS
Choice of coordinates    CoordSys .... Z-matrix Internals
Initial Hessian          InHess   .... Almoef's Model

Convergence Tolerances:
Energy Change            TolE     ....  5.0000e-06 Eh
Max. Gradient            TolMAXG  ....  3.0000e-04 Eh/bohr
RMS Gradient             TolRMSG  ....  1.0000e-04 Eh/bohr
Max. Displacement        TolMAXD  ....  4.0000e-03 bohr
RMS Displacement         TolRMSD  ....  2.0000e-03 bohr
Strict Convergence                ....  False
------------------------------------------------------------------------------
                        ORCA OPTIMIZATION COORDINATE SETUP
------------------------------------------------------------------------------

The optimization will be done in new redundant internal coordinates
Making redundant internal coordinates   ...  (new redundants) done
Evaluating the initial hessian          ...  (Almloef) done
Evaluating the coordinates              ...  done
Calculating the B-matrix                .... done
Calculating the G-matrix                .... done
Diagonalizing the G-matrix              .... done
Small eigenvalue found = 2.394e-02
The first mode is                       ....   36
The number of degrees of freedom        ....   51

    -----------------------------------------------------------------
                    Redundant Internal Coordinates


    -----------------------------------------------------------------
         Definition                    Initial Value    Approx d2E/dq
    -----------------------------------------------------------------
      1. B(N   1,C   0)                  1.4558         0.439382   
      2. B(C   2,N   1)                  1.4059         0.527920   
      3. B(C   3,C   2)                  1.3899         0.624967   
      4. B(C   4,C   3)                  1.3810         0.645904   
      5. B(C   5,C   4)                  1.3829         0.641265   
      6. B(C   6,C   5)                  1.3828         0.641480   
      7. B(C   7,C   2)                  1.4077         0.585444   
      8. B(C   7,C   6)                  1.3912         0.622126   
      9. B(N   8,C   7)                  1.3870         0.565902   
     10. B(H   9,N   8)                  1.0089         0.434437   
     11. B(H  10,N   8)                  1.0098         0.433013   
     12. B(H  11,C   6)                  1.0805         0.372873   
     13. B(H  12,C   5)                  1.0788         0.375291   
     14. B(H  13,C   4)                  1.0775         0.376999   
     15. B(F  14,C   3)                  1.3622         0.575872   
     16. B(H  15,N   1)                  1.0157         0.423800   
     17. B(H  16,C   0)                  1.0875         0.363482   
     18. B(H  17,C   0)                  1.0972         0.350652   
     19. B(H  18,C   0)                  1.0900         0.360037   
     20. A(H  17,C   0,H  18)          108.6340         0.289620   
     21. A(N   1,C   0,H  18)          108.4886         0.331103   
     22. A(H  16,C   0,H  17)          108.2029         0.290053   
     23. A(N   1,C   0,H  16)          109.5604         0.331625   
     24. A(N   1,C   0,H  17)          112.6115         0.329660   
     25. A(H  16,C   0,H  18)          109.2975         0.291259   
     26. A(C   0,N   1,H  15)          109.8339         0.337277   
     27. A(C   2,N   1,H  15)          110.0530         0.347811   
     28. A(C   0,N   1,C   2)          116.8672         0.391742   
     29. A(C   3,C   2,C   7)          117.3929         0.430232   
     30. A(N   1,C   2,C   7)          120.5144         0.414741   
     31. A(N   1,C   2,C   3)          121.9554         0.419594   
     32. A(C   2,C   3,C   4)          123.4383         0.437907   
     33. A(C   4,C   3,F  14)          118.8010         0.426791   
     34. A(C   2,C   3,F  14)          117.7605         0.424281   
     35. A(C   5,C   4,H  13)          122.0694         0.357706   
     36. A(C   3,C   4,H  13)          119.7168         0.358145   
     37. A(C   3,C   4,C   5)          118.2102         0.439946   
     38. A(C   4,C   5,C   6)          120.1790         0.439401   
     39. A(C   6,C   5,H  12)          119.9049         0.357450   
     40. A(C   4,C   5,H  12)          119.9077         0.357430   
     41. A(C   5,C   6,H  11)          119.9942         0.357058   
     42. A(C   7,C   6,H  11)          118.7083         0.355205   
     43. A(C   5,C   6,C   7)          121.2883         0.437006   
     44. A(C   6,C   7,N   8)          121.1991         0.424487   
     45. A(C   2,C   7,N   8)          119.3609         0.419904   
     46. A(C   2,C   7,C   6)          119.4083         0.429880   
     47. A(H   9,N   8,H  10)          113.5107         0.303485   
     48. A(C   7,N   8,H  10)          113.4521         0.353195   
     49. A(C   7,N   8,H   9)          114.3602         0.353392   
     50. D(H  15,N   1,C   0,H  16)    174.1545         0.016462   
     51. D(C   2,N   1,C   0,H  18)    167.1507         0.016462   
     52. D(H  15,N   1,C   0,H  17)     53.6836         0.016462   
     53. D(C   2,N   1,C   0,H  17)    -72.5692         0.016462   
     54. D(C   2,N   1,C   0,H  16)     47.9018         0.016462   
     55. D(H  15,N   1,C   0,H  18)    -66.5966         0.016462   
     56. D(C   3,C   2,N   1,C   0)    115.7212         0.022124   
     57. D(C   3,C   2,N   1,H  15)    -10.4229         0.022124   
     58. D(C   7,C   2,N   1,H  15)    165.2073         0.022124   
     59. D(C   7,C   2,N   1,C   0)    -68.6486         0.022124   
     60. D(F  14,C   3,C   2,C   7)   -177.8654         0.027054   
     61. D(C   4,C   3,C   2,C   7)      1.9628         0.027054   
     62. D(C   4,C   3,C   2,N   1)    177.7230         0.027054   
     63. D(F  14,C   3,C   2,N   1)     -2.1052         0.027054   
     64. D(C   5,C   4,C   3,C   2)      0.5866         0.029022   
     65. D(H  13,C   4,C   3,F  14)     -0.2629         0.029022   
     66. D(H  13,C   4,C   3,C   2)    179.9106         0.029022   
     67. D(C   5,C   4,C   3,F  14)   -179.5869         0.029022   
     68. D(H  12,C   5,C   4,H  13)     -0.1627         0.028579   
     69. D(H  12,C   5,C   4,C   3)    179.1445         0.028579   
     70. D(C   6,C   5,C   4,H  13)    178.7792         0.028579   
     71. D(C   6,C   5,C   4,C   3)     -1.9136         0.028579   
     72. D(H  11,C   6,C   5,H  12)      0.7130         0.028599   
     73. D(H  11,C   6,C   5,C   4)   -178.2290         0.028599   
     74. D(C   7,C   6,C   5,H  12)    179.5914         0.028599   
     75. D(C   7,C   6,C   5,C   4)      0.6495         0.028599   
     76. D(N   8,C   7,C   2,C   3)    178.8401         0.023569   
     77. D(N   8,C   7,C   2,N   1)      3.0156         0.023569   
     78. D(C   6,C   7,C   2,C   3)     -3.1835         0.023569   
     79. D(C   2,C   7,C   6,C   5)      1.9734         0.026793   
     80. D(C   6,C   7,C   2,N   1)   -179.0081         0.023569   
     81. D(N   8,C   7,C   6,H  11)     -1.1959         0.026793   
     82. D(N   8,C   7,C   6,C   5)    179.9115         0.026793   
     83. D(C   2,C   7,C   6,H  11)   -179.1340         0.026793   
     84. D(H  10,N   8,C   7,C   6)    151.2242         0.025607   
     85. D(H  10,N   8,C   7,C   2)    -30.8368         0.025607   
     86. D(H   9,N   8,C   7,C   6)     18.8659         0.025607   
     87. D(H   9,N   8,C   7,C   2)   -163.1950         0.025607   
    -----------------------------------------------------------------

Number of atoms                         .... 19
Number of degrees of freedom            .... 87

         *************************************************************
         *                GEOMETRY OPTIMIZATION CYCLE   1            *
         *************************************************************
---------------------------------
CARTESIAN COORDINATES (ANGSTROEM)
---------------------------------
  C     -2.624600   -0.565200    0.658100
  N     -1.630500   -0.726400   -0.393200
  C     -0.360000   -0.173000   -0.156500
  C      0.778600   -0.963200   -0.051300
  C      2.046800   -0.449500    0.135300
  C      2.188300    0.922600    0.234200
  C      1.084800    1.746200    0.107000
  C     -0.186200    1.223100   -0.108100
  N     -1.292000    2.050800   -0.233600
  H     -1.070900    3.009900   -0.455300
  H     -2.021800    1.661400   -0.812800
  H      1.203000    2.819100    0.156200
  H      3.164700    1.352500    0.394000
  H      2.888300   -1.118300    0.210300
  F      0.624300   -2.313600   -0.141800
  H     -1.542700   -1.708500   -0.636800
  H     -2.641300    0.471000    0.987600
  H     -2.422500   -1.199100    1.530600
  H     -3.601500   -0.830400    0.253700

----------------------------
CARTESIAN COORDINATES (A.U.)
----------------------------
  NO LB      ZA    FRAG     MASS         X           Y           Z
   0 C     6.0000    0    12.011   -4.959775   -1.068073    1.243629
   1 N     7.0000    0    14.007   -3.081198   -1.372697   -0.743040
   2 C     6.0000    0    12.011   -0.680301   -0.326923   -0.295742
   3 C     6.0000    0    12.011    1.471341   -1.820184   -0.096943
   4 C     6.0000    0    12.011    3.867891   -0.849432    0.255680
   5 C     6.0000    0    12.011    4.135288    1.743461    0.442574
   6 C     6.0000    0    12.011    2.049975    3.299840    0.202201
   7 C     6.0000    0    12.011   -0.351867    2.311324   -0.204279
   8 N     7.0000    0    14.007   -2.441526    3.875450   -0.441440
   9 H     1.0000    0     1.008   -2.023708    5.687887   -0.860392
  10 H     1.0000    0     1.008   -3.820648    3.139591   -1.535969
  11 H     1.0000    0     1.008    2.273341    5.327327    0.295175
  12 H     1.0000    0     1.008    5.980416    2.555855    0.744552
  13 H     1.0000    0     1.008    5.458096   -2.113281    0.397409
  14 F     9.0000    0    18.998    1.179756   -4.372070   -0.267963
  15 H     1.0000    0     1.008   -2.915281   -3.228597   -1.203378
  16 H     1.0000    0     1.008   -4.991334    0.890061    1.866294
  17 H     1.0000    0     1.008   -4.577862   -2.265971    2.892415
  18 H     1.0000    0     1.008   -6.805849   -1.569229    0.479424

--------------------------------
INTERNAL COORDINATES (ANGSTROEM)
--------------------------------
 C      0   0   0     0.000000000000     0.00000000     0.00000000
 N      1   0   0     1.455833761114     0.00000000     0.00000000
 C      2   1   0     1.405862262101   116.86718106     0.00000000
 C      3   2   1     1.389925551963   121.95540728   115.72120480
 C      4   3   2     1.380955643748   123.43827803   177.72298232
 C      5   4   3     1.382917882595   118.21020681     0.58660970
 C      6   5   4     1.382826471398   120.17897201   358.08636893
 C      7   6   5     1.391165921089   121.28828237     0.64949134
 N      8   7   6     1.386950316342   121.19914094   179.91154359
 H      9   8   7     1.008914718894   114.36021475    18.86592325
 H      9   8   7     1.009808417473   113.45211687   151.22415124
 H      7   6   5     1.080512049910   119.99416280   181.77101373
 H      6   5   4     1.078752524910   119.90768962   179.14446181
 H      5   4   3     1.077515981320   119.71681796   179.91060371
 F      4   3   2     1.362196351485   117.76051671   357.89478611
 H      2   1   3     1.015662448848   109.83390632   126.25274983
 H      1   2   3     1.087455553115   109.56038153    47.90175388
 H      1   2   3     1.097237380880   112.61147910   287.43081954
 H      1   2   3     1.090047709965   108.48860172   167.15065545

---------------------------
INTERNAL COORDINATES (A.U.)
---------------------------
 C      0   0   0     0.000000000000     0.00000000     0.00000000
 N      1   0   0     2.751127105022     0.00000000     0.00000000
 C      2   1   0     2.656694657386   116.86718106     0.00000000
 C      3   2   1     2.626578639750   121.95540728   115.72120480
 C      4   3   2     2.609627969777   123.43827803   177.72298232
 C      5   4   3     2.613336063806   118.21020681     0.58660970
 C      6   5   4     2.613163321680   120.17897201   358.08636893
 C      7   6   5     2.628922597703   121.28828237     0.64949134
 N      8   7   6     2.620956259241   121.19914094   179.91154359
 H      9   8   7     1.906572511191   114.36021475    18.86592325
 H      9   8   7     1.908261356753   113.45211687   151.22415124
 H      7   6   5     2.041871858731   119.99416280   181.77101373
 H      6   5   4     2.038546838356   119.90768962   179.14446181
 H      5   4   3     2.036210109618   119.71681796   179.91060371
 F      4   3   2     2.574178044934   117.76051671   357.89478611
 H      2   1   3     1.919323872831   109.83390632   126.25274983
 H      1   2   3     2.054993178199   109.56038153    47.90175388
 H      1   2   3     2.073478153764   112.61147910   287.43081954
 H      1   2   3     2.059891644742   108.48860172   167.15065545

---------------------
BASIS SET INFORMATION
---------------------
There are 4 groups of distinct atoms

 Group   1 Type C   : 7s4p1d contracted to 3s2p1d pattern {511/31/1}
 Group   2 Type N   : 7s4p1d contracted to 3s2p1d pattern {511/31/1}
 Group   3 Type H   : 4s1p contracted to 2s1p pattern {31/1}
 Group   4 Type F   : 7s4p1d contracted to 3s2p1d pattern {511/31/1}

Atom   0C    basis set group =>   1
Atom   1N    basis set group =>   2
Atom   2C    basis set group =>   1
Atom   3C    basis set group =>   1
Atom   4C    basis set group =>   1
Atom   5C    basis set group =>   1
Atom   6C    basis set group =>   1
Atom   7C    basis set group =>   1
Atom   8N    basis set group =>   2
Atom   9H    basis set group =>   3
Atom  10H    basis set group =>   3
Atom  11H    basis set group =>   3
Atom  12H    basis set group =>   3
Atom  13H    basis set group =>   3
Atom  14F    basis set group =>   4
Atom  15H    basis set group =>   3
Atom  16H    basis set group =>   3
Atom  17H    basis set group =>   3
Atom  18H    basis set group =>   3
------------------------------------------------------------------------------
                           ORCA GTO INTEGRAL CALCULATION
------------------------------------------------------------------------------

                         BASIS SET STATISTICS AND STARTUP INFO

 # of primitive gaussian shells          ...  165
 # of primitive gaussian functions       ...  303
 # of contracted shells                  ...   87
 # of contracted basis functions         ...  185
 Highest angular momentum                ...    2
 Maximum contraction depth               ...    5
 Integral package used                   ... LIBINT
 Integral threshhold            Thresh   ...  2.500e-11
 Primitive cut-off              TCut     ...  2.500e-12


------------------------------ INTEGRAL EVALUATION ----------------------------


 * One electron integrals 
 Pre-screening matrix                    ... done
 Shell pair data                         ... done (   0.001 sec)

-------------------------------------------------------------------------------
                                 ORCA SCF
-------------------------------------------------------------------------------

------------
SCF SETTINGS
------------
Hamiltonian:
 Density Functional     Method          .... DFT(GTOs)
 Exchange Functional    Exchange        .... WB97X-D3
 Correlation Functional Correlation     .... WB97X-D3
 Gradients option       PostSCFGGA      .... off
 Hybrid DFT is turned on
   Fraction HF Exchange ScalHFX         ....  0.195728
   Scaling of DF-GGA-X  ScalDFX         ....  0.000000
   Scaling of DF-GGA-C  ScalDFC         ....  1.000000
   Scaling of DF-LDA-C  ScalLDAC        ....  1.000000
   Perturbative correction              ....  0.000000
   Density functional embedding theory  .... OFF
 Long-range corrected/Screened/Range-Separated Hybrid DFT is turned on
   Amount of maximum screened exact exchange              ....  0.804272
   Range separation parameter mu (erf(mu*r12)/r12)        ....  0.250000


General Settings:
 Integral files         IntName         .... 018457280
 Hartree-Fock type      HFTyp           .... RHF
 Total Charge           Charge          ....    0
 Multiplicity           Mult            ....    1
 Number of Electrons    NEL             ....   74
 Basis Dimension        Dim             ....  185
 Nuclear Repulsion      ENuc            ....    528.4195883431 Eh

Convergence Acceleration:
 DIIS                   CNVDIIS         .... on
   Start iteration      DIISMaxIt       ....    12
   Startup error        DIISStart       ....  0.200000
   # of expansion vecs  DIISMaxEq       ....     5
   Bias factor          DIISBfac        ....   1.050
   Max. coefficient     DIISMaxC        ....  10.000
 Newton-Raphson         CNVNR           .... off
 SOSCF                  CNVSOSCF        .... on
   Start iteration      SOSCFMaxIt      ....   150
   Startup grad/error   SOSCFStart      ....  0.003300
 Level Shifting         CNVShift        .... on
   Level shift para.    LevelShift      ....    0.2500
   Turn off err/grad.   ShiftErr        ....    0.0010
 Zerner damping         CNVZerner       .... off
 Static damping         CNVDamp         .... on
   Fraction old density DampFac         ....    0.7000
   Max. Damping (<1)    DampMax         ....    0.9800
   Min. Damping (>=0)   DampMin         ....    0.0000
   Turn off err/grad.   DampErr         ....    0.1000
 Fernandez-Rico         CNVRico         .... off

SCF Procedure:
 Maximum # iterations   MaxIter         ....   125
 SCF integral mode      SCFMode         .... Direct
   Integral package                     .... LIBINT
 Reset frequency        DirectResetFreq ....    20
 Integral Threshold     Thresh          ....  2.500e-11 Eh
 Primitive CutOff       TCut            ....  2.500e-12 Eh

Convergence Tolerance:
 Convergence Check Mode ConvCheckMode   .... Total+1el-Energy
 Convergence forced     ConvForced      .... 0
 Energy Change          TolE            ....  1.000e-08 Eh
 1-El. energy change                    ....  1.000e-05 Eh
 Orbital Gradient       TolG            ....  1.000e-05
 Orbital Rotation angle TolX            ....  1.000e-05
 DIIS Error             TolErr          ....  5.000e-07


Diagonalization of the overlap matrix:
Smallest eigenvalue                        ... 1.625e-04
Time for diagonalization                   ...    0.030 sec
Threshold for overlap eigenvalues          ... 1.000e-08
Number of eigenvalues below threshold      ... 0
Time for construction of square roots      ...    0.002 sec
Total time needed                          ...    0.031 sec

-------------------
DFT GRID GENERATION
-------------------

General Integration Accuracy     IntAcc      ...  4.340
Radial Grid Type                 RadialGrid  ... Gauss-Chebyshev
Angular Grid (max. acc.)         AngularGrid ... Lebedev-110
Angular grid pruning method      GridPruning ... 3 (G Style)
Weight generation scheme         WeightScheme... Becke
Basis function cutoff            BFCut       ...    1.0000e-11
Integration weight cutoff        WCut        ...    1.0000e-14
Grids for H and He will be reduced by one unit

# of grid points (after initial pruning)     ...  23882 (   0.0 sec)
# of grid points (after weights+screening)   ...  21956 (   0.1 sec)
nearest neighbour list constructed           ...    0.0 sec
Grid point re-assignment to atoms done       ...    0.0 sec
Grid point division into batches done        ...    0.0 sec
Reduced shell lists constructed in    0.2 sec

Total number of grid points                  ...    21956
Total number of batches                      ...      350
Average number of points per batch           ...       62
Average number of grid points per atom       ...     1156
Average number of shells per batch           ...    59.70 (68.62%)
Average number of basis functions per batch  ...   124.07 (67.07%)
Average number of large shells per batch     ...    45.76 (76.66%)
Average number of large basis fcns per batch ...    93.84 (75.64%)
Maximum spatial batch extension              ...  20.16, 19.16, 21.59 au
Average spatial batch extension              ...   3.49,  3.41,  4.03 au

Time for grid setup =    0.215 sec

------------------------------
INITIAL GUESS: MODEL POTENTIAL
------------------------------
Loading Hartree-Fock densities                     ... done
Calculating cut-offs                               ... done
Setting up the integral package                    ... done
Initializing the effective Hamiltonian             ... done
Starting the Coulomb interaction                   ... done (   0.1 sec)
Reading the grid                                   ... done
Mapping shells                                     ... done
Starting the XC term evaluation                    ... done (   0.2 sec)
  promolecular density results
     # of electrons  =     73.998346300
     EX              =    -61.586267684
     EC              =     -2.482646859
     EX+EC           =    -64.068914543
Transforming the Hamiltonian                       ... done (   0.0 sec)
Diagonalizing the Hamiltonian                      ... done (   0.0 sec)
Back transforming the eigenvectors                 ... done (   0.0 sec)
Now organizing SCF variables                       ... done
                      ------------------
                      INITIAL GUESS DONE (   0.7 sec)
                      ------------------
--------------
SCF ITERATIONS
--------------
ITER       Energy         Delta-E        Max-DP      RMS-DP      [F,P]     Damp
               ***  Starting incremental Fock matrix formation  ***
  0   -480.7921433950   0.000000000000 0.06811715  0.00222917  0.2031178 0.7000
  1   -480.8834666468  -0.091323251781 0.04193260  0.00163604  0.1129550 0.7000
                               ***Turning on DIIS***
  2   -480.9304191849  -0.046952538101 0.07960418  0.00337529  0.0525600 0.0000
  3   -481.0065612805  -0.076142095680 0.03268248  0.00087370  0.0472624 0.0000
  4   -481.0176996343  -0.011138353772 0.00480871  0.00020487  0.0057889 0.0000
                      *** Initiating the SOSCF procedure ***
                           *** Shutting down DIIS ***
                      *** Re-Reading the Fockian *** 
                      *** Removing any level shift *** 
ITER      Energy       Delta-E        Grad      Rot      Max-DP    RMS-DP
  5   -481.01797940  -0.0002797629  0.000737  0.000737  0.001781  0.000065
               *** Restarting incremental Fock matrix formation ***
  6   -481.01801255  -0.0000331499  0.000414  0.001039  0.001196  0.000044
  7   -481.01801953  -0.0000069792  0.000314  0.001325  0.001040  0.000031
  8   -481.01802067  -0.0000011472  0.000126  0.000238  0.000173  0.000008
  9   -481.01802105  -0.0000003787  0.000021  0.000031  0.000048  0.000002
 10   -481.01802107  -0.0000000173  0.000014  0.000034  0.000031  0.000001
 11   -481.01802108  -0.0000000064  0.000005  0.000021  0.000012  0.000000
 12   -481.01802108   0.0000000002  0.000003  0.000008  0.000006  0.000000
                  ***Gradient check signals convergence***
              ***Rediagonalizing the Fockian in SOSCF/NRSCF***

               *****************************************************
               *                     SUCCESS                       *
               *           SCF CONVERGED AFTER  13 CYCLES          *
               *****************************************************

Setting up the final grid:

General Integration Accuracy     IntAcc      ...  4.670
Radial Grid Type                 RadialGrid  ... Gauss-Chebyshev
Angular Grid (max. acc.)         AngularGrid ... Lebedev-302
Angular grid pruning method      GridPruning ... 3 (G Style)
Weight generation scheme         WeightScheme... Becke
Basis function cutoff            BFCut       ...    1.0000e-11
Integration weight cutoff        WCut        ...    1.0000e-14
Grids for H and He will be reduced by one unit

# of grid points (after initial pruning)     ...  92726 (   0.0 sec)
# of grid points (after weights+screening)   ...  83851 (   0.2 sec)
nearest neighbour list constructed           ...    0.0 sec
Grid point re-assignment to atoms done       ...    0.0 sec
Grid point division into batches done        ...    0.3 sec
Reduced shell lists constructed in    0.8 sec

Total number of grid points                  ...    83851
Total number of batches                      ...     1320
Average number of points per batch           ...       63
Average number of grid points per atom       ...     4413
Average number of shells per batch           ...    54.41 (62.54%)
Average number of basis functions per batch  ...   112.12 (60.61%)
Average number of large shells per batch     ...    41.06 (75.46%)
Average number of large basis fcns per batch ...    83.51 (74.48%)
Maximum spatial batch extension              ...  19.26, 17.86, 20.46 au
Average spatial batch extension              ...   2.34,  2.31,  2.54 au

Final grid set up in    1.0 sec
Final integration                            ... done (   1.3 sec)
Change in XC energy                          ...     0.001500153
Integrated number of electrons               ...    74.000101384
Previous integrated no of electrons          ...    74.002268366

----------------
TOTAL SCF ENERGY
----------------

Total Energy       :         -481.01652092 Eh          -13089.12497 eV

Components:
Nuclear Repulsion  :          528.41958834 Eh           14379.02801 eV
Electronic Energy  :        -1009.43610927 Eh          -27468.15299 eV
One Electron Energy:        -1702.43566406 Eh          -46325.62957 eV
Two Electron Energy:          692.99955480 Eh           18857.47658 eV

Virial components:
Potential Energy   :         -957.50050948 Eh          -26054.91347 eV
Kinetic Energy     :          476.48398856 Eh           12965.78850 eV
Virial Ratio       :            2.00951245


DFT components:
N(Alpha)           :       37.000050692157 electrons
N(Beta)            :       37.000050692157 electrons
N(Total)           :       74.000101384315 electrons
E(XC)              :      -45.312953474700 Eh       
DFET-embed. en.    :        0.000000000000 Eh       

---------------
SCF CONVERGENCE
---------------

  Last Energy change         ...   -9.0188e-10  Tolerance :   1.0000e-08
  Last MAX-Density change    ...    2.1752e-06  Tolerance :   1.0000e-07
  Last RMS-Density change    ...    8.9694e-08  Tolerance :   5.0000e-09
  Last Orbital Gradient      ...    8.8352e-07  Tolerance :   1.0000e-05
  Last Orbital Rotation      ...    1.2850e-06  Tolerance :   1.0000e-05

             **** THE GBW FILE WAS UPDATED (018457280.gbw) ****
             **** DENSITY FILE WAS UPDATED (018457280.scfp) ****
             **** ENERGY FILE WAS UPDATED (018457280.en.tmp) ****
             **** THE GBW FILE WAS UPDATED (018457280.gbw) ****
             **** DENSITY FILE WAS UPDATED (018457280.scfp) ****
----------------
ORBITAL ENERGIES
----------------

  NO   OCC          E(Eh)            E(eV) 
   0   2.0000     -24.793415      -674.6631 
   1   2.0000     -14.436747      -392.8439 
   2   2.0000     -14.431489      -392.7008 
   3   2.0000     -10.363077      -281.9937 
   4   2.0000     -10.328724      -281.0589 
   5   2.0000     -10.317582      -280.7557 
   6   2.0000     -10.307671      -280.4860 
   7   2.0000     -10.288105      -279.9536 
   8   2.0000     -10.280509      -279.7469 
   9   2.0000     -10.279938      -279.7313 
  10   2.0000      -1.309624       -35.6367 
  11   2.0000      -1.053234       -28.6599 
  12   2.0000      -1.010373       -27.4937 
  13   2.0000      -0.952265       -25.9125 
  14   2.0000      -0.852035       -23.1851 
  15   2.0000      -0.838350       -22.8127 
  16   2.0000      -0.776853       -21.1392 
  17   2.0000      -0.726635       -19.7727 
  18   2.0000      -0.705666       -19.2021 
  19   2.0000      -0.652431       -17.7535 
  20   2.0000      -0.629101       -17.1187 
  21   2.0000      -0.610283       -16.6066 
  22   2.0000      -0.576137       -15.6775 
  23   2.0000      -0.567883       -15.4529 
  24   2.0000      -0.561334       -15.2747 
  25   2.0000      -0.552338       -15.0299 
  26   2.0000      -0.540107       -14.6971 
  27   2.0000      -0.524109       -14.2617 
  28   2.0000      -0.495034       -13.4706 
  29   2.0000      -0.491633       -13.3780 
  30   2.0000      -0.476001       -12.9527 
  31   2.0000      -0.463478       -12.6119 
  32   2.0000      -0.447448       -12.1757 
  33   2.0000      -0.406862       -11.0713 
  34   2.0000      -0.374225       -10.1832 
  35   2.0000      -0.307969        -8.3803 
  36   2.0000      -0.280829        -7.6417 
  37   0.0000       0.081956         2.2301 
  38   0.0000       0.090477         2.4620 
  39   0.0000       0.144938         3.9440 
  40   0.0000       0.155386         4.2283 
  41   0.0000       0.176539         4.8039 
  42   0.0000       0.196881         5.3574 
  43   0.0000       0.209230         5.6934 
  44   0.0000       0.224008         6.0956 
  45   0.0000       0.226925         6.1750 
  46   0.0000       0.238605         6.4928 
  47   0.0000       0.255103         6.9417 
  48   0.0000       0.258084         7.0228 
  49   0.0000       0.266832         7.2609 
  50   0.0000       0.297729         8.1016 
  51   0.0000       0.357423         9.7260 
  52   0.0000       0.364365         9.9149 
  53   0.0000       0.390187        10.6175 
  54   0.0000       0.402477        10.9520 
  55   0.0000       0.414205        11.2711 
  56   0.0000       0.431803        11.7500 
  57   0.0000       0.462587        12.5876 
  58   0.0000       0.493928        13.4405 
  59   0.0000       0.527329        14.3494 
  60   0.0000       0.543762        14.7965 
  61   0.0000       0.549326        14.9479 
  62   0.0000       0.555895        15.1267 
  63   0.0000       0.563062        15.3217 
  64   0.0000       0.585301        15.9269 
  65   0.0000       0.593586        16.1523 
  66   0.0000       0.622431        16.9372 
  67   0.0000       0.629823        17.1384 
  68   0.0000       0.642022        17.4703 
  69   0.0000       0.671020        18.2594 
  70   0.0000       0.679961        18.5027 
  71   0.0000       0.687378        18.7045 
  72   0.0000       0.708446        19.2778 
  73   0.0000       0.722486        19.6598 
  74   0.0000       0.737542        20.0695 
  75   0.0000       0.751517        20.4498 
  76   0.0000       0.758253        20.6331 
  77   0.0000       0.767699        20.8901 
  78   0.0000       0.778025        21.1711 
  79   0.0000       0.783838        21.3293 
  80   0.0000       0.804541        21.8927 
  81   0.0000       0.813433        22.1346 
  82   0.0000       0.825430        22.4611 
  83   0.0000       0.827424        22.5154 
  84   0.0000       0.850586        23.1456 
  85   0.0000       0.869715        23.6662 
  86   0.0000       0.876378        23.8475 
  87   0.0000       0.910408        24.7735 
  88   0.0000       0.914679        24.8897 
  89   0.0000       0.933544        25.4030 
  90   0.0000       0.937179        25.5019 
  91   0.0000       0.956052        26.0155 
  92   0.0000       0.998878        27.1809 
  93   0.0000       1.012357        27.5476 
  94   0.0000       1.040214        28.3057 
  95   0.0000       1.098022        29.8787 
  96   0.0000       1.122555        30.5463 
  97   0.0000       1.185904        32.2701 
  98   0.0000       1.201696        32.6998 
  99   0.0000       1.250217        34.0201 
 100   0.0000       1.256085        34.1798 
 101   0.0000       1.271240        34.5922 
 102   0.0000       1.288167        35.0528 
 103   0.0000       1.339900        36.4605 
 104   0.0000       1.340399        36.4741 
 105   0.0000       1.360737        37.0275 
 106   0.0000       1.388145        37.7734 
 107   0.0000       1.407384        38.2969 
 108   0.0000       1.417165        38.5630 
 109   0.0000       1.433220        38.9999 
 110   0.0000       1.511088        41.1188 
 111   0.0000       1.550294        42.1857 
 112   0.0000       1.577881        42.9363 
 113   0.0000       1.588341        43.2209 
 114   0.0000       1.624186        44.1963 
 115   0.0000       1.650665        44.9169 
 116   0.0000       1.682339        45.7788 
 117   0.0000       1.751378        47.6574 
 118   0.0000       1.757277        47.8179 
 119   0.0000       1.805331        49.1256 
 120   0.0000       1.814484        49.3746 
 121   0.0000       1.823339        49.6156 
 122   0.0000       1.825644        49.6783 
 123   0.0000       1.845228        50.2112 
 124   0.0000       1.860803        50.6350 
 125   0.0000       1.891951        51.4826 
 126   0.0000       1.894424        51.5499 
 127   0.0000       1.907781        51.9134 
 128   0.0000       1.917588        52.1802 
 129   0.0000       1.932211        52.5781 
 130   0.0000       1.942096        52.8471 
 131   0.0000       1.956532        53.2400 
 132   0.0000       1.981070        53.9077 
 133   0.0000       2.017581        54.9012 
 134   0.0000       2.040122        55.5145 
 135   0.0000       2.052616        55.8545 
 136   0.0000       2.068099        56.2758 
 137   0.0000       2.077681        56.5366 
 138   0.0000       2.107666        57.3525 
 139   0.0000       2.157302        58.7032 
 140   0.0000       2.167950        58.9929 
 141   0.0000       2.181599        59.3643 
 142   0.0000       2.221915        60.4614 
 143   0.0000       2.254276        61.3420 
 144   0.0000       2.267131        61.6918 
 145   0.0000       2.269815        61.7648 
 146   0.0000       2.282557        62.1115 
 147   0.0000       2.335264        63.5458 
 148   0.0000       2.359407        64.2027 
 149   0.0000       2.389996        65.0351 
 150   0.0000       2.396778        65.2197 
 151   0.0000       2.406243        65.4772 
 152   0.0000       2.418332        65.8062 
 153   0.0000       2.466480        67.1163 
 154   0.0000       2.500921        68.0535 
 155   0.0000       2.547526        69.3217 
 156   0.0000       2.584880        70.3382 
 157   0.0000       2.599450        70.7346 
 158   0.0000       2.673158        72.7403 
 159   0.0000       2.718623        73.9775 
 160   0.0000       2.742161        74.6180 
 161   0.0000       2.752161        74.8901 
 162   0.0000       2.796809        76.1050 
 163   0.0000       2.807394        76.3931 
 164   0.0000       2.871570        78.1394 
 165   0.0000       2.895513        78.7909 
 166   0.0000       2.931401        79.7675 
 167   0.0000       2.987703        81.2995 
 168   0.0000       3.014011        82.0154 
 169   0.0000       3.031859        82.5011 
 170   0.0000       3.060233        83.2732 
 171   0.0000       3.109660        84.6181 
 172   0.0000       3.147957        85.6603 
 173   0.0000       3.160413        85.9992 
 174   0.0000       3.187593        86.7388 
 175   0.0000       3.219094        87.5960 
 176   0.0000       3.239043        88.1388 
 177   0.0000       3.271635        89.0257 
 178   0.0000       3.322609        90.4128 
 179   0.0000       3.408239        92.7429 
 180   0.0000       3.460009        94.1516 
 181   0.0000       3.565163        97.0130 
 182   0.0000       3.678917       100.1084 
 183   0.0000       3.691927       100.4624 
 184   0.0000       3.989891       108.5704 

                    ********************************
                    * MULLIKEN POPULATION ANALYSIS *
                    ********************************

-----------------------
MULLIKEN ATOMIC CHARGES
-----------------------
   0 C :    0.058158
   1 N :   -0.236324
   2 C :   -0.046860
   3 C :    0.237074
   4 C :   -0.094232
   5 C :    0.007085
   6 C :   -0.078084
   7 C :    0.017510
   8 N :   -0.120660
   9 H :    0.118177
  10 H :    0.135641
  11 H :   -0.020787
  12 H :    0.012004
  13 H :    0.010990
  14 F :   -0.233413
  15 H :    0.123077
  16 H :    0.047695
  17 H :    0.026155
  18 H :    0.036793
Sum of atomic charges:    0.0000000

--------------------------------
MULLIKEN REDUCED ORBITAL CHARGES
--------------------------------
  0 C s       :     2.996702  s :     2.996702
      pz      :     0.910308  p :     2.902661
      px      :     0.919534
      py      :     1.072819
      dz2     :     0.009619  d :     0.042479
      dxz     :     0.010982
      dyz     :     0.008659
      dx2y2   :     0.009683
      dxy     :     0.003536
  1 N s       :     3.379185  s :     3.379185
      pz      :     1.490486  p :     3.833077
      px      :     1.143101
      py      :     1.199489
      dz2     :     0.004632  d :     0.024063
      dxz     :     0.006518
      dyz     :     0.001881
      dx2y2   :     0.007553
      dxy     :     0.003479
  2 C s       :     3.018783  s :     3.018783
      pz      :     1.076960  p :     2.970856
      px      :     0.865485
      py      :     1.028411
      dz2     :     0.004584  d :     0.057221
      dxz     :     0.012979
      dyz     :     0.006710
      dx2y2   :     0.015756
      dxy     :     0.017192
  3 C s       :     3.050716  s :     3.050716
      pz      :     1.025052  p :     2.632248
      px      :     0.950971
      py      :     0.656224
      dz2     :     0.006315  d :     0.079962
      dxz     :     0.009374
      dyz     :     0.015060
      dx2y2   :     0.026656
      dxy     :     0.022557
  4 C s       :     3.228553  s :     3.228553
      pz      :     1.070203  p :     2.831676
      px      :     0.888332
      py      :     0.873141
      dz2     :     0.002896  d :     0.034003
      dxz     :     0.004692
      dyz     :     0.005540
      dx2y2   :     0.009091
      dxy     :     0.011783
  5 C s       :     3.133426  s :     3.133426
      pz      :     0.987057  p :     2.822017
      px      :     0.895396
      py      :     0.939564
      dz2     :     0.002665  d :     0.037472
      dxz     :     0.003742
      dyz     :     0.007937
      dx2y2   :     0.011470
      dxy     :     0.011658
  6 C s       :     3.248229  s :     3.248229
      pz      :     1.073987  p :     2.796011
      px      :     0.940802
      py      :     0.781223
      dz2     :     0.002944  d :     0.033843
      dxz     :     0.006768
      dyz     :     0.002616
      dx2y2   :     0.012265
      dxy     :     0.009249
  7 C s       :     2.983584  s :     2.983584
      pz      :     0.973815  p :     2.936897
      px      :     0.870156
      py      :     1.092927
      dz2     :     0.004868  d :     0.062008
      dxz     :     0.013133
      dyz     :     0.010388
      dx2y2   :     0.016575
      dxy     :     0.017045
  8 N s       :     3.306903  s :     3.306903
      pz      :     1.589160  p :     3.795865
      px      :     1.160860
      py      :     1.045845
      dz2     :     0.001842  d :     0.017892
      dxz     :     0.004192
      dyz     :     0.002800
      dx2y2   :     0.004145
      dxy     :     0.004914
  9 H s       :     0.836102  s :     0.836102
      pz      :     0.013325  p :     0.045721
      px      :     0.009051
      py      :     0.023345
 10 H s       :     0.818095  s :     0.818095
      pz      :     0.016653  p :     0.046264
      px      :     0.018386
      py      :     0.011225
 11 H s       :     0.997168  s :     0.997168
      pz      :     0.005423  p :     0.023619
      px      :     0.003525
      py      :     0.014671
 12 H s       :     0.964547  s :     0.964547
      pz      :     0.005107  p :     0.023449
      px      :     0.013137
      py      :     0.005206
 13 H s       :     0.965049  s :     0.965049
      pz      :     0.005257  p :     0.023961
      px      :     0.010714
      py      :     0.007990
 14 F s       :     3.894434  s :     3.894434
      pz      :     1.909216  p :     5.331321
      px      :     1.915803
      py      :     1.506301
      dz2     :     0.001052  d :     0.007658
      dxz     :     0.000039
      dyz     :     0.001837
      dx2y2   :     0.003105
      dxy     :     0.001624
 15 H s       :     0.832675  s :     0.832675
      pz      :     0.012582  p :     0.044248
      px      :     0.008151
      py      :     0.023514
 16 H s       :     0.928156  s :     0.928156
      pz      :     0.004961  p :     0.024149
      px      :     0.003956
      py      :     0.015232
 17 H s       :     0.951529  s :     0.951529
      pz      :     0.010337  p :     0.022316
      px      :     0.003923
      py      :     0.008055
 18 H s       :     0.940723  s :     0.940723
      pz      :     0.005017  p :     0.022484
      px      :     0.011926
      py      :     0.005541


                     *******************************
                     * LOEWDIN POPULATION ANALYSIS *
                     *******************************

----------------------
LOEWDIN ATOMIC CHARGES
----------------------
   0 C :    0.011095
   1 N :   -0.086910
   2 C :   -0.050273
   3 C :    0.075479
   4 C :   -0.085331
   5 C :   -0.024338
   6 C :   -0.079228
   7 C :    0.017095
   8 N :   -0.042353
   9 H :    0.071964
  10 H :    0.072219
  11 H :    0.024891
  12 H :    0.031072
  13 H :    0.035603
  14 F :   -0.094197
  15 H :    0.067919
  16 H :    0.023252
  17 H :    0.011400
  18 H :    0.020640

-------------------------------
LOEWDIN REDUCED ORBITAL CHARGES
-------------------------------
  0 C s       :     2.830077  s :     2.830077
      pz      :     0.987070  p :     3.057446
      px      :     0.980795
      py      :     1.089581
      dz2     :     0.023060  d :     0.101381
      dxz     :     0.026403
      dyz     :     0.021050
      dx2y2   :     0.024266
      dxy     :     0.006603
  1 N s       :     3.086523  s :     3.086523
      pz      :     1.481868  p :     3.945713
      px      :     1.198021
      py      :     1.265824
      dz2     :     0.008873  d :     0.054674
      dxz     :     0.014132
      dyz     :     0.004048
      dx2y2   :     0.018656
      dxy     :     0.008965
  2 C s       :     2.831673  s :     2.831673
      pz      :     1.046416  p :     3.077949
      px      :     0.982662
      py      :     1.048870
      dz2     :     0.010384  d :     0.140651
      dxz     :     0.025712
      dyz     :     0.013573
      dx2y2   :     0.043915
      dxy     :     0.047068
  3 C s       :     2.849614  s :     2.849614
      pz      :     1.016716  p :     2.890449
      px      :     1.100918
      py      :     0.772815
      dz2     :     0.013556  d :     0.184457
      dxz     :     0.019206
      dyz     :     0.029293
      dx2y2   :     0.063551
      dxy     :     0.058851
  4 C s       :     2.849014  s :     2.849014
      pz      :     1.046608  p :     3.145696
      px      :     1.038817
      py      :     1.060270
      dz2     :     0.007151  d :     0.090621
      dxz     :     0.009160
      dyz     :     0.011583
      dx2y2   :     0.028397
      dxy     :     0.034330
  5 C s       :     2.845227  s :     2.845227
      pz      :     0.973965  p :     3.082480
      px      :     1.046064
      py      :     1.062451
      dz2     :     0.006175  d :     0.096631
      dxz     :     0.007290
      dyz     :     0.017021
      dx2y2   :     0.032740
      dxy     :     0.033404
  6 C s       :     2.845300  s :     2.845300
      pz      :     1.055570  p :     3.143105
      px      :     1.050270
      py      :     1.037265
      dz2     :     0.006739  d :     0.090822
      dxz     :     0.014801
      dyz     :     0.004657
      dx2y2   :     0.036052
      dxy     :     0.028573
  7 C s       :     2.829017  s :     2.829017
      pz      :     0.961038  p :     3.006925
      px      :     1.011650
      py      :     1.034237
      dz2     :     0.010639  d :     0.146963
      dxz     :     0.025636
      dyz     :     0.021208
      dx2y2   :     0.043545
      dxy     :     0.045935
  8 N s       :     3.056642  s :     3.056642
      pz      :     1.568053  p :     3.941459
      px      :     1.232676
      py      :     1.140730
      dz2     :     0.003528  d :     0.044252
      dxz     :     0.008704
      dyz     :     0.005586
      dx2y2   :     0.012546
      dxy     :     0.013889
  9 H s       :     0.805045  s :     0.805045
      pz      :     0.038824  p :     0.122991
      px      :     0.023418
      py      :     0.060748
 10 H s       :     0.800836  s :     0.800836
      pz      :     0.053010  p :     0.126945
      px      :     0.048047
      py      :     0.025888
 11 H s       :     0.904977  s :     0.904977
      pz      :     0.017113  p :     0.070132
      px      :     0.012096
      py      :     0.040922
 12 H s       :     0.900109  s :     0.900109
      pz      :     0.015577  p :     0.068819
      px      :     0.036811
      py      :     0.016431
 13 H s       :     0.892825  s :     0.892825
      pz      :     0.017171  p :     0.071572
      px      :     0.030926
      py      :     0.023475
 14 F s       :     3.728465  s :     3.728465
      pz      :     1.906028  p :     5.354002
      px      :     1.911722
      py      :     1.536251
      dz2     :     0.001681  d :     0.011730
      dxz     :     0.000058
      dyz     :     0.002655
      dx2y2   :     0.004961
      dxy     :     0.002376
 15 H s       :     0.807009  s :     0.807009
      pz      :     0.037405  p :     0.125072
      px      :     0.022249
      py      :     0.065418
 16 H s       :     0.907703  s :     0.907703
      pz      :     0.014107  p :     0.069045
      px      :     0.011669
      py      :     0.043269
 17 H s       :     0.923109  s :     0.923109
      pz      :     0.031561  p :     0.065491
      px      :     0.011786
      py      :     0.022145
 18 H s       :     0.914620  s :     0.914620
      pz      :     0.014752  p :     0.064741
      px      :     0.034947
      py      :     0.015042


                      *****************************
                      * MAYER POPULATION ANALYSIS *
                      *****************************

  NA   - Mulliken gross atomic population
  ZA   - Total nuclear charge
  QA   - Mulliken gross atomic charge
  VA   - Mayer's total valence
  BVA  - Mayer's bonded valence
  FA   - Mayer's free valence

  ATOM       NA         ZA         QA         VA         BVA        FA
  0 C      5.9418     6.0000     0.0582     3.9270     3.9270     0.0000
  1 N      7.2363     7.0000    -0.2363     3.1338     3.1338    -0.0000
  2 C      6.0469     6.0000    -0.0469     3.9979     3.9979     0.0000
  3 C      5.7629     6.0000     0.2371     3.8797     3.8797    -0.0000
  4 C      6.0942     6.0000    -0.0942     3.8101     3.8101    -0.0000
  5 C      5.9929     6.0000     0.0071     3.8058     3.8058     0.0000
  6 C      6.0781     6.0000    -0.0781     3.8133     3.8133    -0.0000
  7 C      5.9825     6.0000     0.0175     4.1090     4.1090     0.0000
  8 N      7.1207     7.0000    -0.1207     3.1777     3.1777     0.0000
  9 H      0.8818     1.0000     0.1182     1.0027     1.0027    -0.0000
 10 H      0.8644     1.0000     0.1356     1.0042     1.0042     0.0000
 11 H      1.0208     1.0000    -0.0208     0.9953     0.9953    -0.0000
 12 H      0.9880     1.0000     0.0120     0.9855     0.9855     0.0000
 13 H      0.9890     1.0000     0.0110     0.9972     0.9972    -0.0000
 14 F      9.2334     9.0000    -0.2334     1.1310     1.1310    -0.0000
 15 H      0.8769     1.0000     0.1231     1.0089     1.0089     0.0000
 16 H      0.9523     1.0000     0.0477     1.0224     1.0224     0.0000
 17 H      0.9738     1.0000     0.0262     0.9848     0.9848     0.0000
 18 H      0.9632     1.0000     0.0368     0.9883     0.9883     0.0000

  Mayer bond orders larger than 0.100000
B(  0-C ,  1-N ) :   0.9846 B(  0-C , 16-H ) :   0.9702 B(  0-C , 17-H ) :   0.9719 
B(  0-C , 18-H ) :   0.9812 B(  1-N ,  2-C ) :   1.1448 B(  1-N , 15-H ) :   0.9329 
B(  2-C ,  3-C ) :   1.3566 B(  2-C ,  7-C ) :   1.3481 B(  3-C ,  4-C ) :   1.3680 
B(  3-C , 14-F ) :   1.0423 B(  4-C ,  5-C ) :   1.3512 B(  4-C , 13-H ) :   1.0043 
B(  5-C ,  6-C ) :   1.3735 B(  5-C , 12-H ) :   0.9928 B(  6-C ,  7-C ) :   1.3534 
B(  6-C , 11-H ) :   1.0057 B(  7-C ,  8-N ) :   1.2086 B(  8-N ,  9-H ) :   0.9448 
B(  8-N , 10-H ) :   0.9329 

-------
TIMINGS
-------

Total SCF time: 0 days 0 hours 1 min 44 sec 

Total time                  ....     104.532 sec
Sum of individual times     ....     104.316 sec  ( 99.8%)

Fock matrix formation       ....     102.552 sec  ( 98.1%)
  XC integration            ....       6.063 sec  (  5.9% of F)
    Basis function eval.    ....       1.725 sec  ( 28.4% of XC)
    Density eval.           ....       1.050 sec  ( 17.3% of XC)
    XC-Functional eval.     ....       1.592 sec  ( 26.3% of XC)
    XC-Potential eval.      ....       1.530 sec  ( 25.2% of XC)
Diagonalization             ....       0.028 sec  (  0.0%)
Density matrix formation    ....       0.008 sec  (  0.0%)
Population analysis         ....       0.005 sec  (  0.0%)
Initial guess               ....       0.455 sec  (  0.4%)
Orbital Transformation      ....       0.000 sec  (  0.0%)
Orbital Orthonormalization  ....       0.000 sec  (  0.0%)
DIIS solution               ....       0.009 sec  (  0.0%)
SOSCF solution              ....       0.022 sec  (  0.0%)
Grid generation             ....       1.237 sec  (  1.2%)


-------------------------------------------------------------------------------
                          DFT DISPERSION CORRECTION                            
                                                                               
                              DFTD3 V3.1  Rev 1                                
                              USING zero damping                               
-------------------------------------------------------------------------------
The omegaB97X-D3 functional is recognized. Fit by Chai et al.
Active option DFTDOPT                   ...         3   

molecular C6(AA) [au] = 3654.248984 


            DFT-D V3
 parameters
 s6 scaling factor         :     1.0000 
 rs6 scaling factor        :     1.2810 
 s8 scaling factor         :     1.0000 
 rs8 scaling factor        :     1.0940 
 Damping factor alpha6     :    14.0000 
 Damping factor alpha8     :    16.0000 
 ad hoc parameters k1-k3   :    16.0000     1.3333    -4.0000 

 Edisp/kcal,au: -3.725298335113  -0.005936640149 
 E6   /kcal   :  -1.680188794 
 E8   /kcal   :  -2.045109541 
 % E8         :  54.897872795 

-------------------------   ----------------
Dispersion correction           -0.005936640
-------------------------   ----------------


-------------------------   --------------------
FINAL SINGLE POINT ENERGY      -481.022457563701
-------------------------   --------------------

------------------------------------------------------------------------------
                         ORCA SCF GRADIENT CALCULATION
------------------------------------------------------------------------------

Gradient of the Kohn-Sham DFT energy:
Kohn-Sham wavefunction type      ... RKS
Hartree-Fock exchange scaling    ...    0.196
Number of operators              ...    1
Number of atoms                  ...   19
Basis set dimensions             ...  185
Integral neglect threshold       ... 2.5e-11
Integral primitive cutoff        ... 2.5e-12

Nuclear repulsion gradient       ... done
One Electron Gradient            ... done
Pre-screening matrix             ... done
Starting the two electron gradient:
Two electron gradient done
Exchange-correlation gradient    ... done
Dispersion correction            ... done

------------------
CARTESIAN GRADIENT
------------------

   1   C   :   -0.005285843    0.005017240    0.003054659
   2   N   :   -0.000226987    0.000780110    0.001068198
   3   C   :    0.003204886    0.003463435    0.002863108
   4   C   :    0.001506917    0.014755542   -0.000077058
   5   C   :    0.001010981    0.001399995   -0.000370375
   6   C   :    0.001935139    0.001109114    0.001162866
   7   C   :   -0.000621941   -0.000645123   -0.001036142
   8   C   :    0.003949877   -0.001807336   -0.000625051
   9   N   :   -0.001407713    0.001082709   -0.003565326
  10   H   :    0.000743813   -0.002678117    0.001589662
  11   H   :    0.003501651    0.001358161    0.004231818
  12   H   :   -0.001223486   -0.009356036   -0.000653732
  13   H   :   -0.008836217   -0.003952585   -0.001295129
  14   H   :   -0.007009888    0.006755030   -0.000602420
  15   F   :    0.000450368   -0.012112514   -0.000520642
  16   H   :   -0.000692410   -0.001344972    0.002289130
  17   H   :    0.002220194   -0.006595185   -0.002468561
  18   H   :   -0.000451006    0.002131203   -0.005460598
  19   H   :    0.007231665    0.000639328    0.000415595

Difference to translation invariance:
           :    0.0000000000   -0.0000000000   -0.0000000000

Norm of the cartesian gradient     ...    0.0313061236
RMS gradient                       ...    0.0041465974
MAX gradient                       ...    0.0147555415

-------
TIMINGS
-------

Total SCF gradient time            ...       38.171 sec

One electron gradient       ....       0.136 sec  (  0.4%)
Prescreening matrices       ....       0.093 sec  (  0.2%)
Two electron gradient       ....      33.230 sec  ( 87.1%)
XC gradient                 ....       4.564 sec  ( 12.0%)
------------------------------------------------------------------------------
                         ORCA GEOMETRY RELAXATION STEP
------------------------------------------------------------------------------

Reading the OPT-File                    .... done
Getting information on internals        .... done
Copying old internal coords+grads       .... done
Making the new internal coordinates     .... (new redundants).... done
Validating the new internal coordinates .... (new redundants).... done
Calculating the B-matrix                .... done
Calculating the G,G- and P matrices     .... done
Transforming gradient to internals      .... done
Projecting the internal gradient        .... done
Number of atoms                         ....  19
Number of internal coordinates          ....  87
Current Energy                          ....  -481.022457564 Eh
Current gradient norm                   ....     0.031306124 Eh/bohr
Maximum allowed component of the step   ....  0.300
Current trust radius                    ....  0.300
Evaluating the initial hessian          ....  (Almloef) done
Projecting the Hessian                  .... done
Forming the augmented Hessian           .... done
Diagonalizing the augmented Hessian     .... done
Last element of RFO vector              ....  0.979917482
Lowest eigenvalues of augmented Hessian:
 -0.003267921  0.016531072  0.022642922  0.024679067  0.025276044
Length of the computed step             ....  0.203490022
The final length of the internal step   ....  0.203490022
Converting the step to cartesian space:
 Initial RMS(Int)=    0.0218164203
Transforming coordinates:
 Iter   0:  RMS(Cart)=    0.0684272137 RMS(Int)=    0.9481963720
 Iter   1:  RMS(Cart)=    0.0019403607 RMS(Int)=    0.0010809815
 Iter   2:  RMS(Cart)=    0.0001384480 RMS(Int)=    0.0000527007
 Iter   3:  RMS(Cart)=    0.0000089319 RMS(Int)=    0.0000047648
 Iter   4:  RMS(Cart)=    0.0000006370 RMS(Int)=    0.0000002783
 Iter   5:  RMS(Cart)=    0.0000000442 RMS(Int)=    0.0000000232
done
Storing new coordinates                 .... done

                                .--------------------.
          ----------------------|Geometry convergence|-------------------------
          Item                value                   Tolerance       Converged
          ---------------------------------------------------------------------
          RMS gradient        0.0035682142            0.0001000000      NO
          MAX gradient        0.0119924279            0.0003000000      NO
          RMS step            0.0218164203            0.0020000000      NO
          MAX step            0.0882871531            0.0040000000      NO
          ........................................................
          Max(Bonds)      0.0137      Max(Angles)    0.60
          Max(Dihed)        5.06      Max(Improp)    0.00
          ---------------------------------------------------------------------

The optimization has not yet converged - more geometry cycles are needed


    ---------------------------------------------------------------------------
                         Redundant Internal Coordinates
                            (Angstroem and degrees)

        Definition                    Value    dE/dq     Step     New-Value
    ----------------------------------------------------------------------------
     1. B(N   1,C   0)                1.4558 -0.005624  0.0067    1.4626   
     2. B(C   2,N   1)                1.4059 -0.002586  0.0026    1.4084   
     3. B(C   3,C   2)                1.3899 -0.003965  0.0031    1.3931   
     4. B(C   4,C   3)                1.3810 -0.005788  0.0047    1.3856   
     5. B(C   5,C   4)                1.3829 -0.009269  0.0078    1.3907   
     6. B(C   6,C   5)                1.3828 -0.009668  0.0081    1.3910   
     7. B(C   7,C   2)                1.4077 -0.005762  0.0050    1.4127   
     8. B(C   7,C   6)                1.3912 -0.009880  0.0084    1.3996   
     9. B(N   8,C   7)                1.3870 -0.002603  0.0024    1.3894   
    10. B(H   9,N   8)                1.0089 -0.002732  0.0033    1.0122   
    11. B(H  10,N   8)                1.0098 -0.005494  0.0067    1.0165   
    12. B(H  11,C   6)                1.0805 -0.009455  0.0133    1.0938   
    13. B(H  12,C   5)                1.0788 -0.009766  0.0137    1.0924   
    14. B(H  13,C   4)                1.0775 -0.009709  0.0135    1.0910   
    15. B(F  14,C   3)                1.3622  0.011992 -0.0110    1.3512   
    16. B(H  15,N   1)                1.0157  0.000687 -0.0009    1.0148   
    17. B(H  16,C   0)                1.0875 -0.007068  0.0102    1.0977   
    18. B(H  17,C   0)                1.0972 -0.005654  0.0085    1.1057   
    19. B(H  18,C   0)                1.0900 -0.006792  0.0099    1.0999   
    20. A(H  17,C   0,H  18)          108.63  0.001547   -0.16    108.48   
    21. A(N   1,C   0,H  18)          108.49 -0.003052    0.56    109.05   
    22. A(H  16,C   0,H  17)          108.20  0.001561   -0.31    107.89   
    23. A(N   1,C   0,H  16)          109.56 -0.001444    0.21    109.77   
    24. A(N   1,C   0,H  17)          112.61 -0.001179    0.26    112.87   
    25. A(H  16,C   0,H  18)          109.30  0.002746   -0.60    108.69   
    26. A(C   0,N   1,H  15)          109.83 -0.000701    0.04    109.87   
    27. A(C   2,N   1,H  15)          110.05  0.000971   -0.33    109.73   
    28. A(C   0,N   1,C   2)          116.87  0.000039   -0.08    116.78   
    29. A(C   3,C   2,C   7)          117.39 -0.000615    0.04    117.43   
    30. A(N   1,C   2,C   7)          120.51 -0.001518    0.26    120.78   
    31. A(N   1,C   2,C   3)          121.96  0.002098   -0.23    121.73   
    32. A(C   2,C   3,C   4)          123.44 -0.002335    0.26    123.70   
    33. A(C   4,C   3,F  14)          118.80 -0.001196    0.19    118.99   
    34. A(C   2,C   3,F  14)          117.76  0.003531   -0.45    117.31   
    35. A(C   5,C   4,H  13)          122.07 -0.001727    0.25    122.32   
    36. A(C   3,C   4,H  13)          119.72  0.000147   -0.05    119.67   
    37. A(C   3,C   4,C   5)          118.21  0.001579   -0.21    118.01   
    38. A(C   4,C   5,C   6)          120.18 -0.000243    0.09    120.27   
    39. A(C   6,C   5,H  12)          119.90  0.000187   -0.05    119.85   
    40. A(C   4,C   5,H  12)          119.91  0.000055   -0.03    119.87   
    41. A(C   5,C   6,H  11)          119.99 -0.000565    0.05    120.04   
    42. A(C   7,C   6,H  11)          118.71 -0.001014    0.12    118.83   
    43. A(C   5,C   6,C   7)          121.29  0.001586   -0.19    121.10   
    44. A(C   6,C   7,N   8)          121.20 -0.003217    0.46    121.66   
    45. A(C   2,C   7,N   8)          119.36  0.003162   -0.40    118.96   
    46. A(C   2,C   7,C   6)          119.41  0.000030   -0.01    119.40   
    47. A(H   9,N   8,H  10)          113.51  0.001427   -0.48    113.03   
    48. A(C   7,N   8,H  10)          113.45  0.000610   -0.22    113.23   
    49. A(C   7,N   8,H   9)          114.36 -0.001568    0.13    114.49   
    50. D(H  15,N   1,C   0,H  16)    174.15 -0.000288    1.30    175.46   
    51. D(C   2,N   1,C   0,H  18)    167.15 -0.000373    1.52    168.67   
    52. D(H  15,N   1,C   0,H  17)     53.68 -0.000491    1.38     55.06   
    53. D(C   2,N   1,C   0,H  17)    -72.57 -0.001245    1.87    -70.70   
    54. D(C   2,N   1,C   0,H  16)     47.90 -0.001042    1.79     49.69   
    55. D(H  15,N   1,C   0,H  18)    -66.60  0.000381    1.03    -65.57   
    56. D(C   3,C   2,N   1,C   0)    115.72  0.002164   -5.06    110.66   
    57. D(C   3,C   2,N   1,H  15)    -10.42  0.002238   -4.75    -15.17   
    58. D(C   7,C   2,N   1,H  15)    165.21  0.001656   -3.56    161.65   
    59. D(C   7,C   2,N   1,C   0)    -68.65  0.001581   -3.87    -72.52   
    60. D(F  14,C   3,C   2,C   7)   -177.87  0.000123   -0.23   -178.10   
    61. D(C   4,C   3,C   2,C   7)      1.96 -0.000062    0.13      2.09   
    62. D(C   4,C   3,C   2,N   1)    177.72 -0.000669    1.29    179.01   
    63. D(F  14,C   3,C   2,N   1)     -2.11 -0.000485    0.93     -1.18   
    64. D(C   5,C   4,C   3,C   2)      0.59  0.000061   -0.16      0.43   
    65. D(H  13,C   4,C   3,F  14)     -0.26 -0.000167    0.30      0.03   
    66. D(H  13,C   4,C   3,C   2)    179.91  0.000011   -0.07    179.84   
    67. D(C   5,C   4,C   3,F  14)   -179.59 -0.000117    0.21   -179.37   
    68. D(H  12,C   5,C   4,H  13)     -0.16 -0.000082    0.14     -0.02   
    69. D(H  12,C   5,C   4,C   3)    179.14 -0.000119    0.23    179.37   
    70. D(C   6,C   5,C   4,H  13)    178.78 -0.000184    0.28    179.06   
    71. D(C   6,C   5,C   4,C   3)     -1.91 -0.000221    0.37     -1.55   
    72. D(H  11,C   6,C   5,H  12)      0.71 -0.000165    0.33      1.05   
    73. D(H  11,C   6,C   5,C   4)   -178.23 -0.000062    0.19   -178.03   
    74. D(C   7,C   6,C   5,H  12)    179.59  0.000225   -0.43    179.16   
    75. D(C   7,C   6,C   5,C   4)      0.65  0.000328   -0.57      0.08   
    76. D(N   8,C   7,C   2,C   3)    178.84  0.001025   -1.89    176.95   
    77. D(N   8,C   7,C   2,N   1)      3.02  0.001463   -3.01      0.00   
    78. D(C   6,C   7,C   2,C   3)     -3.18  0.000168   -0.31     -3.49   
    79. D(C   2,C   7,C   6,C   5)      1.97 -0.000289    0.53      2.51   
    80. D(C   6,C   7,C   2,N   1)   -179.01  0.000606   -1.43   -180.44   
    81. D(N   8,C   7,C   6,H  11)     -1.20 -0.000638    1.38      0.18   
    82. D(N   8,C   7,C   6,C   5)    179.91 -0.001027    2.13    182.04   
    83. D(C   2,C   7,C   6,H  11)   -179.13  0.000100   -0.22   -179.35   
    84. D(H  10,N   8,C   7,C   6)    151.22  0.001144   -1.52    149.70   
    85. D(H  10,N   8,C   7,C   2)    -30.84  0.000343    0.08    -30.76   
    86. D(H   9,N   8,C   7,C   6)     18.87 -0.000021   -0.72     18.15   
    87. D(H   9,N   8,C   7,C   2)   -163.20 -0.000823    0.88   -162.31   
    ----------------------------------------------------------------------------

         *************************************************************
         *                GEOMETRY OPTIMIZATION CYCLE   2            *
         *************************************************************
---------------------------------
CARTESIAN COORDINATES (ANGSTROEM)
---------------------------------
  C     -2.613371   -0.611883    0.698561
  N     -1.652635   -0.697910   -0.400829
  C     -0.375463   -0.150083   -0.171886
  C      0.756257   -0.954022   -0.055641
  C      2.033723   -0.458229    0.149738
  C      2.190469    0.919648    0.253867
  C      1.091878    1.762312    0.120498
  C     -0.188214    1.249154   -0.118018
  N     -1.286227    2.081926   -0.294680
  H     -1.053618    3.040034   -0.523823
  H     -1.994364    1.687075   -0.907747
  H      1.224345    2.846901    0.170971
  H      3.182684    1.342939    0.426148
  H      2.874081   -1.148933    0.233799
  F      0.579419   -2.290521   -0.146984
  H     -1.562358   -1.661734   -0.705356
  H     -2.649670    0.416584    1.080373
  H     -2.360727   -1.279075    1.543297
  H     -3.611409   -0.884783    0.325312

----------------------------
CARTESIAN COORDINATES (A.U.)
----------------------------
  NO LB      ZA    FRAG     MASS         X           Y           Z
   0 C     6.0000    0    12.011   -4.938556   -1.156291    1.320089
   1 N     7.0000    0    14.007   -3.123028   -1.318859   -0.757458
   2 C     6.0000    0    12.011   -0.709522   -0.283616   -0.324818
   3 C     6.0000    0    12.011    1.429119   -1.802841   -0.105147
   4 C     6.0000    0    12.011    3.843179   -0.865928    0.282963
   5 C     6.0000    0    12.011    4.139387    1.737883    0.479739
   6 C     6.0000    0    12.011    2.063350    3.330286    0.227708
   7 C     6.0000    0    12.011   -0.355674    2.360559   -0.223022
   8 N     7.0000    0    14.007   -2.430617    3.934270   -0.556864
   9 H     1.0000    0     1.008   -1.991050    5.744832   -0.989882
  10 H     1.0000    0     1.008   -3.768801    3.188111   -1.715393
  11 H     1.0000    0     1.008    2.313676    5.379863    0.323089
  12 H     1.0000    0     1.008    6.014401    2.537788    0.805303
  13 H     1.0000    0     1.008    5.431226   -2.171168    0.441817
  14 F     9.0000    0    18.998    1.094944   -4.328458   -0.277760
  15 H     1.0000    0     1.008   -2.952428   -3.140221   -1.332930
  16 H     1.0000    0     1.008   -5.007150    0.787231    2.041609
  17 H     1.0000    0     1.008   -4.461128   -2.417102    2.916410
  18 H     1.0000    0     1.008   -6.824574   -1.671998    0.614751

--------------------------------
INTERNAL COORDINATES (ANGSTROEM)
--------------------------------
 C      0   0   0     0.000000000000     0.00000000     0.00000000
 N      1   0   0     1.462557373356     0.00000000     0.00000000
 C      2   1   0     1.408438720858   116.78213895     0.00000000
 C      3   2   1     1.393061835438   121.72051596   110.66288077
 C      4   3   2     1.385608064076   123.70137326   179.01356849
 C      5   4   3     1.390668239340   118.00442039     0.43025034
 C      6   5   4     1.390960622137   120.26771135   358.45275793
 C      7   6   5     1.399591868948   121.10392498     0.08542519
 N      8   7   6     1.389370846226   121.64958992   182.04516223
 H      9   8   7     1.012218007890   114.48910108    18.14735445
 H      9   8   7     1.016472023443   113.23003177   149.70385455
 H      7   6   5     1.093813829438   120.04173560   181.96694816
 H      6   5   4     1.092403890898   119.87479178   179.37356754
 H      5   4   3     1.091026569540   119.67140348   179.83872222
 F      4   3   2     1.351238510109   117.31275052   358.82031335
 H      2   1   3     1.014811168251   109.86895073   125.76225744
 H      1   2   3     1.097653497994   109.77367662    49.69289055
 H      1   2   3     1.105691569538   112.87337255   289.29771957
 H      1   2   3     1.099940146223   109.04812807   168.66815022

---------------------------
INTERNAL COORDINATES (A.U.)
---------------------------
 C      0   0   0     0.000000000000     0.00000000     0.00000000
 N      1   0   0     2.763832890790     0.00000000     0.00000000
 C      2   1   0     2.661563458833   116.78213895     0.00000000
 C      3   2   1     2.632505356596   121.72051596   110.66288077
 C      4   3   2     2.618419770056   123.70137326   179.01356849
 C      5   4   3     2.627982115496   118.00442039     0.43025034
 C      6   5   4     2.628534638907   120.26771135   358.45275793
 C      7   6   5     2.644845331575   121.10392498     0.08542519
 N      8   7   6     2.625530397822   121.64958992   182.04516223
 H      9   8   7     1.912814822736   114.48910108    18.14735445
 H      9   8   7     1.920853747100   113.23003177   149.70385455
 H      7   6   5     2.067008579133   120.04173560   181.96694816
 H      6   5   4     2.064344181428   119.87479178   179.37356754
 H      5   4   3     2.061741421262   119.67140348   179.83872222
 F      4   3   2     2.553470725713   117.31275052   358.82031335
 H      2   1   3     1.917715185640   109.86895073   125.76225744
 H      1   2   3     2.074264501149   109.77367662    49.69289055
 H      1   2   3     2.089454255013   112.87337255   289.29771957
 H      1   2   3     2.078585640068   109.04812807   168.66815022


Diagonalization of the overlap matrix:
Smallest eigenvalue                        ... 1.697e-04
Time for diagonalization                   ...    0.005 sec
Threshold for overlap eigenvalues          ... 1.000e-08
Number of eigenvalues below threshold      ... 0
Time for construction of square roots      ...    0.002 sec
Total time needed                          ...    0.007 sec

-------------------
DFT GRID GENERATION
-------------------

General Integration Accuracy     IntAcc      ...  4.340
Radial Grid Type                 RadialGrid  ... Gauss-Chebyshev
Angular Grid (max. acc.)         AngularGrid ... Lebedev-110
Angular grid pruning method      GridPruning ... 3 (G Style)
Weight generation scheme         WeightScheme... Becke
Basis function cutoff            BFCut       ...    1.0000e-11
Integration weight cutoff        WCut        ...    1.0000e-14
Grids for H and He will be reduced by one unit

# of grid points (after initial pruning)     ...  23882 (   0.0 sec)
# of grid points (after weights+screening)   ...  21959 (   0.1 sec)
nearest neighbour list constructed           ...    0.0 sec
Grid point re-assignment to atoms done       ...    0.0 sec
Grid point division into batches done        ...    0.0 sec
Reduced shell lists constructed in    0.2 sec

Total number of grid points                  ...    21959
Total number of batches                      ...      349
Average number of points per batch           ...       62
Average number of grid points per atom       ...     1156
Average number of shells per batch           ...    59.57 (68.48%)
Average number of basis functions per batch  ...   123.82 (66.93%)
Average number of large shells per batch     ...    45.58 (76.51%)
Average number of large basis fcns per batch ...    93.31 (75.36%)
Maximum spatial batch extension              ...  19.80, 18.77, 21.59 au
Average spatial batch extension              ...   3.50,  3.40,  4.08 au

Time for grid setup =    0.214 sec

--------------
SCF ITERATIONS
--------------
ITER       Energy         Delta-E        Max-DP      RMS-DP      [F,P]     Damp
               ***  Starting incremental Fock matrix formation  ***
  0   -481.0156350438   0.000000000000 0.00779274  0.00029959  0.0178614 0.7000
                      *** Initiating the SOSCF procedure ***
                      *** Re-Reading the Fockian *** 
                      *** Removing any level shift *** 
ITER      Energy       Delta-E        Grad      Rot      Max-DP    RMS-DP
  1   -481.01658678  -0.0009517321  0.001821  0.001821  0.020352  0.000830
               *** Restarting incremental Fock matrix formation ***
  2   -481.01945848  -0.0028717055  0.001906  0.002336  0.003984  0.000177
  3   -481.01969287  -0.0002343911  0.000635  0.002582  0.003146  0.000128
[...]
 140   0.0000       2.162230        58.8373 
 141   0.0000       2.179318        59.3023 
 142   0.0000       2.207060        60.0572 
 143   0.0000       2.245130        61.0931 
 144   0.0000       2.249604        61.2148 
 145   0.0000       2.259228        61.4767 
 146   0.0000       2.277670        61.9785 
 147   0.0000       2.321903        63.1822 
 148   0.0000       2.348331        63.9013 
 149   0.0000       2.379364        64.7458 
 150   0.0000       2.386957        64.9524 
 151   0.0000       2.399396        65.2909 
 152   0.0000       2.413264        65.6683 
 153   0.0000       2.464930        67.0741 
 154   0.0000       2.472253        67.2734 
 155   0.0000       2.535626        68.9979 
 156   0.0000       2.564822        69.7923 
 157   0.0000       2.599015        70.7228 
 158   0.0000       2.660464        72.3949 
 159   0.0000       2.708514        73.7024 
 160   0.0000       2.723833        74.1193 
 161   0.0000       2.733912        74.3935 
 162   0.0000       2.767167        75.2984 
 163   0.0000       2.791497        75.9605 
 164   0.0000       2.846370        77.4537 
 165   0.0000       2.872756        78.1717 
 166   0.0000       2.932118        79.7870 
 167   0.0000       2.961424        80.5844 
 168   0.0000       3.004300        81.7512 
 169   0.0000       3.024069        82.2891 
 170   0.0000       3.053259        83.0834 
 171   0.0000       3.102028        84.4105 
 172   0.0000       3.128702        85.1363 
 173   0.0000       3.143868        85.5490 
 174   0.0000       3.184860        86.6644 
 175   0.0000       3.213544        87.4450 
 176   0.0000       3.222242        87.6817 
 177   0.0000       3.262089        88.7659 
 178   0.0000       3.320487        90.3550 
 179   0.0000       3.420579        93.0787 
 180   0.0000       3.442911        93.6864 
 181   0.0000       3.558780        96.8393 
 182   0.0000       3.673136        99.9511 
 183   0.0000       3.692025       100.4651 
 184   0.0000       3.995954       108.7354 

                    ********************************
                    * MULLIKEN POPULATION ANALYSIS *
                    ********************************

-----------------------
MULLIKEN ATOMIC CHARGES
-----------------------
   0 C :    0.061062
   1 N :   -0.246400
   2 C :   -0.074944
   3 C :    0.242441
   4 C :   -0.108495
   5 C :    0.003060
   6 C :   -0.090166
   7 C :    0.027516
   8 N :   -0.121529
   9 H :    0.121543
  10 H :    0.135572
  11 H :   -0.011569
  12 H :    0.020828
  13 H :    0.018163
  14 F :   -0.215475
  15 H :    0.126032
  16 H :    0.044585
  17 H :    0.028421
  18 H :    0.039353
Sum of atomic charges:   -0.0000000

--------------------------------
MULLIKEN REDUCED ORBITAL CHARGES
--------------------------------
  0 C s       :     3.004182  s :     3.004182
      pz      :     0.888525  p :     2.892703
      px      :     0.940623
      py      :     1.063555
      dz2     :     0.009167  d :     0.042053
      dxz     :     0.010603
      dyz     :     0.010292
      dx2y2   :     0.008070
      dxy     :     0.003921
  1 N s       :     3.382989  s :     3.382989
      pz      :     1.370703  p :     3.839292
      px      :     1.178960
      py      :     1.289628
      dz2     :     0.004906  d :     0.024119
      dxz     :     0.005989
      dyz     :     0.002999
      dx2y2   :     0.007181
      dxy     :     0.003042
  2 C s       :     3.035469  s :     3.035469
      pz      :     1.094372  p :     2.983485
      px      :     0.876984
      py      :     1.012129
      dz2     :     0.004461  d :     0.055990
      dxz     :     0.011342
      dyz     :     0.006482
      dx2y2   :     0.015964
      dxy     :     0.017741
  3 C s       :     3.050022  s :     3.050022
      pz      :     1.005312  p :     2.624570
      px      :     0.942848
      py      :     0.676410
      dz2     :     0.006741  d :     0.082966
      dxz     :     0.009424
      dyz     :     0.016022
      dx2y2   :     0.027096
      dxy     :     0.023683
  4 C s       :     3.230739  s :     3.230739
      pz      :     1.081362  p :     2.844871
      px      :     0.894865
      py      :     0.868644
      dz2     :     0.002893  d :     0.032885
      dxz     :     0.004555
      dyz     :     0.005170
      dx2y2   :     0.009182
      dxy     :     0.011086
  5 C s       :     3.139626  s :     3.139626
      pz      :     0.974541  p :     2.820620
      px      :     0.905625
      py      :     0.940454
      dz2     :     0.002663  d :     0.036694
      dxz     :     0.003528
      dyz     :     0.008147
      dx2y2   :     0.011201
      dxy     :     0.011156
  6 C s       :     3.253835  s :     3.253835
      pz      :     1.081641  p :     2.803662
      px      :     0.938985
      py      :     0.783035
      dz2     :     0.002986  d :     0.032669
      dxz     :     0.006139
      dyz     :     0.002726
      dx2y2   :     0.011750
      dxy     :     0.009069
  7 C s       :     2.997513  s :     2.997513
      pz      :     0.955539  p :     2.913000
      px      :     0.870917
      py      :     1.086544
      dz2     :     0.005098  d :     0.061971
      dxz     :     0.013164
      dyz     :     0.010592
      dx2y2   :     0.016296
      dxy     :     0.016821
  8 N s       :     3.306831  s :     3.306831
      pz      :     1.589918  p :     3.797077
      px      :     1.161907
      py      :     1.045251
      dz2     :     0.001591  d :     0.017621
      dxz     :     0.003778
      dyz     :     0.003268
      dx2y2   :     0.003930
      dxy     :     0.005054
  9 H s       :     0.833136  s :     0.833136
      pz      :     0.013563  p :     0.045321
      px      :     0.008777
      py      :     0.022981
 10 H s       :     0.818094  s :     0.818094
      pz      :     0.015695  p :     0.046333
      px      :     0.018231
      py      :     0.012407
 11 H s       :     0.988608  s :     0.988608
      pz      :     0.005239  p :     0.022961
      px      :     0.003413
      py      :     0.014309
 12 H s       :     0.956358  s :     0.956358
      pz      :     0.004896  p :     0.022814
      px      :     0.013133
      py      :     0.004785
 13 H s       :     0.958495  s :     0.958495
      pz      :     0.005199  p :     0.023342
      px      :     0.010046
      py      :     0.008097
 14 F s       :     3.886936  s :     3.886936
      pz      :     1.902939  p :     5.320430
      px      :     1.910443
      py      :     1.507049
      dz2     :     0.001095  d :     0.008108
      dxz     :     0.000062
      dyz     :     0.001942
      dx2y2   :     0.003176
      dxy     :     0.001833
 15 H s       :     0.830226  s :     0.830226
      pz      :     0.013897  p :     0.043742
      px      :     0.008223
      py      :     0.021622
 16 H s       :     0.932540  s :     0.932540
      pz      :     0.004803  p :     0.022876
      px      :     0.004176
      py      :     0.013897
 17 H s       :     0.949840  s :     0.949840
      pz      :     0.008939  p :     0.021739
      px      :     0.004727
      py      :     0.008072
 18 H s       :     0.938321  s :     0.938321
      pz      :     0.003968  p :     0.022326
      px      :     0.012420
      py      :     0.005938


                     *******************************
                     * LOEWDIN POPULATION ANALYSIS *
                     *******************************

----------------------
LOEWDIN ATOMIC CHARGES
----------------------
   0 C :    0.010202
   1 N :   -0.094054
   2 C :   -0.062266
   3 C :    0.073004
   4 C :   -0.095783
   5 C :   -0.018633
   6 C :   -0.086858
   7 C :    0.024978
   8 N :   -0.044286
   9 H :    0.072872
  10 H :    0.073051
  11 H :    0.027980
  12 H :    0.033882
  13 H :    0.037827
  14 F :   -0.077750
  15 H :    0.066774
  16 H :    0.024749
  17 H :    0.011603
  18 H :    0.022707

-------------------------------
LOEWDIN REDUCED ORBITAL CHARGES
-------------------------------
  0 C s       :     2.838419  s :     2.838419
      pz      :     0.965078  p :     3.051544
      px      :     0.999795
      py      :     1.086671
      dz2     :     0.021886  d :     0.099834
      dxz     :     0.025134
      dyz     :     0.024740
      dx2y2   :     0.019618
      dxy     :     0.008457
  1 N s       :     3.094162  s :     3.094162
      pz      :     1.380276  p :     3.945532
      px      :     1.226071
      py      :     1.339185
      dz2     :     0.009519  d :     0.054360
      dxz     :     0.013683
      dyz     :     0.007235
      dx2y2   :     0.016589
      dxy     :     0.007334
  2 C s       :     2.835256  s :     2.835256
      pz      :     1.061443  p :     3.089104
      px      :     0.978672
      py      :     1.048989
      dz2     :     0.010125  d :     0.137906
      dxz     :     0.022228
      dyz     :     0.013082
      dx2y2   :     0.044553
      dxy     :     0.047917
  3 C s       :     2.851015  s :     2.851015
      pz      :     1.000155  p :     2.884589
      px      :     1.097961
      py      :     0.786473
      dz2     :     0.014486  d :     0.191391
      dxz     :     0.019351
      dyz     :     0.031718
      dx2y2   :     0.064441
      dxy     :     0.061395
  4 C s       :     2.856353  s :     2.856353
      pz      :     1.058151  p :     3.151927
      px      :     1.037232
      py      :     1.056545
      dz2     :     0.006987  d :     0.087502
      dxz     :     0.008948
      dyz     :     0.010750
      dx2y2   :     0.028493
      dxy     :     0.032324
  5 C s       :     2.854351  s :     2.854351
      pz      :     0.964705  p :     3.070374
      px      :     1.043650
      py      :     1.062019
      dz2     :     0.006017  d :     0.093908
      dxz     :     0.006830
      dyz     :     0.017367
      dx2y2   :     0.031820
      dxy     :     0.031874
  6 C s       :     2.853078  s :     2.853078
      pz      :     1.063845  p :     3.146594
      px      :     1.045928
      py      :     1.036820
      dz2     :     0.006663  d :     0.087185
      dxz     :     0.013433
      dyz     :     0.004918
      dx2y2   :     0.034229
      dxy     :     0.027942
  7 C s       :     2.834611  s :     2.834611
      pz      :     0.944632  p :     2.994020
      px      :     1.013184
      py      :     1.036204
      dz2     :     0.011163  d :     0.146391
      dxz     :     0.025749
      dyz     :     0.021804
      dx2y2   :     0.042768
      dxy     :     0.044907
  8 N s       :     3.058551  s :     3.058551
      pz      :     1.566539  p :     3.942006
      px      :     1.232374
      py      :     1.143093
      dz2     :     0.003000  d :     0.043729
      dxz     :     0.007685
      dyz     :     0.006774
      dx2y2   :     0.011936
      dxy     :     0.014334
  9 H s       :     0.804741  s :     0.804741
      pz      :     0.039877  p :     0.122387
      px      :     0.022860
      py      :     0.059650
 10 H s       :     0.800315  s :     0.800315
      pz      :     0.049441  p :     0.126634
      px      :     0.047666
      py      :     0.029528
 11 H s       :     0.903833  s :     0.903833
      pz      :     0.016434  p :     0.068187
      px      :     0.011648
      py      :     0.040105
 12 H s       :     0.899700  s :     0.899700
      pz      :     0.014697  p :     0.066419
      px      :     0.036689
      py      :     0.015033
 13 H s       :     0.892579  s :     0.892579
      pz      :     0.016797  p :     0.069594
      px      :     0.029063
      py      :     0.023734
 14 F s       :     3.718510  s :     3.718510
      pz      :     1.898752  p :     5.346660
      px      :     1.906378
      py      :     1.541530
      dz2     :     0.001794  d :     0.012580
      dxz     :     0.000091
      dyz     :     0.002792
      dx2y2   :     0.005160
      dxy     :     0.002742
 15 H s       :     0.808409  s :     0.808409
      pz      :     0.039060  p :     0.124817
      px      :     0.023217
      py      :     0.062540
 16 H s       :     0.910326  s :     0.910326
      pz      :     0.014183  p :     0.064925
      px      :     0.011666
      py      :     0.039076
 17 H s       :     0.924303  s :     0.924303
      pz      :     0.028219  p :     0.064095
      px      :     0.013630
      py      :     0.022245
 18 H s       :     0.913884  s :     0.913884
      pz      :     0.012075  p :     0.063408
      px      :     0.035747
      py      :     0.015586


                      *****************************
                      * MAYER POPULATION ANALYSIS *
                      *****************************

  NA   - Mulliken gross atomic population
  ZA   - Total nuclear charge
  QA   - Mulliken gross atomic charge
  VA   - Mayer's total valence
  BVA  - Mayer's bonded valence
  FA   - Mayer's free valence

  ATOM       NA         ZA         QA         VA         BVA        FA
  0 C      5.9389     6.0000     0.0611     3.9243     3.9243    -0.0000
  1 N      7.2464     7.0000    -0.2464     3.1380     3.1380     0.0000
  2 C      6.0749     6.0000    -0.0749     3.9730     3.9730    -0.0000
  3 C      5.7576     6.0000     0.2424     3.9017     3.9017    -0.0000
  4 C      6.1085     6.0000    -0.1085     3.7941     3.7941     0.0000
  5 C      5.9969     6.0000     0.0031     3.8118     3.8118    -0.0000
  6 C      6.0902     6.0000    -0.0902     3.8125     3.8125    -0.0000
  7 C      5.9725     6.0000     0.0275     4.1214     4.1214     0.0000
  8 N      7.1215     7.0000    -0.1215     3.1840     3.1840    -0.0000
  9 H      0.8785     1.0000     0.1215     0.9998     0.9998     0.0000
 10 H      0.8644     1.0000     0.1356     1.0148     1.0148    -0.0000
 11 H      1.0116     1.0000    -0.0116     0.9952     0.9952    -0.0000
 12 H      0.9792     1.0000     0.0208     0.9852     0.9852    -0.0000
 13 H      0.9818     1.0000     0.0182     0.9966     0.9966    -0.0000
 14 F      9.2155     9.0000    -0.2155     1.1519     1.1519     0.0000
 15 H      0.8740     1.0000     0.1260     1.0016     1.0016    -0.0000
 16 H      0.9554     1.0000     0.0446     1.0074     1.0074    -0.0000
 17 H      0.9716     1.0000     0.0284     0.9848     0.9848     0.0000
 18 H      0.9606     1.0000     0.0394     0.9877     0.9877    -0.0000

  Mayer bond orders larger than 0.100000
B(  0-C ,  1-N ) :   0.9895 B(  0-C , 16-H ) :   0.9742 B(  0-C , 17-H ) :   0.9693 
B(  0-C , 18-H ) :   0.9813 B(  1-N ,  2-C ) :   1.1363 B(  1-N , 15-H ) :   0.9374 
B(  2-C ,  3-C ) :   1.3614 B(  2-C ,  7-C ) :   1.3545 B(  3-C ,  4-C ) :   1.3580 
B(  3-C , 14-F ) :   1.0710 B(  4-C ,  5-C ) :   1.3507 B(  4-C , 13-H ) :   0.9980 
B(  5-C ,  6-C ) :   1.3816 B(  5-C , 12-H ) :   0.9876 B(  6-C ,  7-C ) :   1.3392 
B(  6-C , 11-H ) :   1.0041 B(  7-C ,  8-N ) :   1.2356 B(  8-N ,  9-H ) :   0.9452 
B(  8-N , 10-H ) :   0.9262 

-------
TIMINGS
-------

Total SCF time: 0 days 0 hours 0 min 43 sec 

Total time                  ....      43.446 sec
Sum of individual times     ....      43.243 sec  ( 99.5%)

Fock matrix formation       ....      41.978 sec  ( 96.6%)
  XC integration            ....       3.248 sec  (  7.7% of F)
    Basis function eval.    ....       0.952 sec  ( 29.3% of XC)
    Density eval.           ....       0.577 sec  ( 17.8% of XC)
    XC-Functional eval.     ....       0.877 sec  ( 27.0% of XC)
    XC-Potential eval.      ....       0.749 sec  ( 23.1% of XC)
Diagonalization             ....       0.005 sec  (  0.0%)
Density matrix formation    ....       0.003 sec  (  0.0%)
Population analysis         ....       0.005 sec  (  0.0%)
Initial guess               ....       0.005 sec  (  0.0%)
Orbital Transformation      ....       0.000 sec  (  0.0%)
Orbital Orthonormalization  ....       0.003 sec  (  0.0%)
DIIS solution               ....       0.001 sec  (  0.0%)
SOSCF solution              ....       0.014 sec  (  0.0%)
Grid generation             ....       1.232 sec  (  2.8%)


-------------------------------------------------------------------------------
                          DFT DISPERSION CORRECTION                            
                                                                               
                              DFTD3 V3.1  Rev 1                                
                              USING zero damping                               
-------------------------------------------------------------------------------
The omegaB97X-D3 functional is recognized. Fit by Chai et al.
Active option DFTDOPT                   ...         3   

molecular C6(AA) [au] = 3657.575563 


            DFT-D V3
 parameters
 s6 scaling factor         :     1.0000 
 rs6 scaling factor        :     1.2810 
 s8 scaling factor         :     1.0000 
 rs8 scaling factor        :     1.0940 
 Damping factor alpha6     :    14.0000 
 Damping factor alpha8     :    16.0000 
 ad hoc parameters k1-k3   :    16.0000     1.3333    -4.0000 

 Edisp/kcal,au: -3.823831277461  -0.006093662371 
 E6   /kcal   :  -1.704327694 
 E8   /kcal   :  -2.119503583 
 % E8         :  55.428794561 

-------------------------   ----------------
Dispersion correction           -0.006093662
-------------------------   ----------------


-------------------------   --------------------
FINAL SINGLE POINT ENERGY      -481.025080382626
-------------------------   --------------------

                                *** OPTIMIZATION RUN DONE ***

                            ***************************************
                            *     ORCA property calculations      *
                            ***************************************

                                    ---------------------
                                    Active property flags
                                    ---------------------
   (+) Dipole Moment


------------------------------------------------------------------------------
                       ORCA ELECTRIC PROPERTIES CALCULATION
------------------------------------------------------------------------------

Dipole Moment Calculation                       ... on
Quadrupole Moment Calculation                   ... off
Polarizability Calculation                      ... off
GBWName                                         ... 018457280.gbw
Electron density file                           ... 018457280.scfp
The origin for moment calculation is the CENTER OF MASS  = (-0.040266,  0.042339 -0.003962)

-------------
DIPOLE MOMENT
-------------
                                X             Y             Z
Electronic contribution:      5.44924      -5.40287      -1.86591
Nuclear contribution   :     -5.81975       5.91208       1.65813
                        -----------------------------------------
Total Dipole Moment    :     -0.37051       0.50922      -0.20778
                        -----------------------------------------
Magnitude (a.u.)       :      0.66314
Magnitude (Debye)      :      1.68556



--------------------
Rotational spectrum 
--------------------
 
Rotational constants in cm-1:     0.056480     0.048638     0.027736 
Rotational constants in MHz :  1693.242700  1458.141049   831.506644 

 Dipole components along the rotational axes: 
x,y,z [a.u.] :    -0.307205     0.557718    -0.185280 
x,y,z [Debye]:    -0.780854     1.417606    -0.470944 

 

Timings for individual modules:

Sum of individual times         ...      897.637 sec (=  14.961 min)
GTO integral calculation        ...        2.591 sec (=   0.043 min)   0.3 %
SCF iterations                  ...      591.896 sec (=   9.865 min)  65.9 %
SCF Gradient evaluation         ...      302.336 sec (=   5.039 min)  33.7 %
Geometry relaxation             ...        0.814 sec (=   0.014 min)   0.1 %
                             ****ORCA TERMINATED NORMALLY****
TOTAL RUN TIME: 0 days 0 hours 14 minutes 58 seconds 812 msec
