
                                 *****************
                                 * O   R   C   A *
                                 *****************

           --- An Ab Initio, DFT and Semiempirical electronic structure package ---

                  #######################################################
                  #                        -***-                        #
                  #          Department of theory and spectroscopy      #
                  #               Directorship: Frank Neese             #
                  #        Max Planck Institute fuer Kohlenforschung    #
                  #                Kaiser Wilhelm Platz 1               #
                  #                 D-45470 Muelheim/Ruhr               #
                  #                      Germany                        #
                  #                                                     #
                  #                  All rights reserved                #
                  #                        -***-                        #
                  #######################################################


                         Program Version 4.2.0 -  RELEASE  -


 With contributions from (in alphabetic order):
   Daniel Aravena         : Magnetic Suceptibility
   Michael Atanasov       : Ab Initio Ligand Field Theory (pilot matlab implementation)
   Alexander A. Auer      : GIAO ZORA, VPT2
   Ute Becker             : Parallelization
   Giovanni Bistoni       : ED, misc. LED, open-shell LED, HFLED
   Martin Brehm           : Molecular dynamics
   Dmytro Bykov           : SCF Hessian
   Vijay G. Chilkuri      : MRCI spin determinant printing, contributions to CSF-ICE
   Dipayan Datta          : RHF DLPNO-CCSD density
   Achintya Kumar Dutta   : EOM-CC, STEOM-CC
   Dmitry Ganyushin       : Spin-Orbit,Spin-Spin,Magnetic field MRCI
   Miquel Garcia          : C-PCM Hessian, Gaussian charge scheme
   Yang Guo               : DLPNO-NEVPT2, CIM, IAO-localization
   Andreas Hansen         : Spin unrestricted coupled pair/coupled cluster methods
   Benjamin Helmich-Paris : CASSCF linear response (MC-RPA)
   Lee Huntington         : MR-EOM, pCC
   Robert Izsak           : Overlap fitted RIJCOSX, COSX-SCS-MP3, EOM
   Christian Kollmar      : KDIIS, OOCD, Brueckner-CCSD(T), CCSD density
   Simone Kossmann        : Meta GGA functionals, TD-DFT gradient, OOMP2, MP2 Hessian
   Martin Krupicka        : AUTO-CI
   Lucas Lang             : DCDCAS
   Dagmar Lenk            : GEPOL surface, SMD
   Dimitrios Liakos       : Extrapolation schemes; Compound Job, initial MDCI parallelization
   Dimitrios Manganas     : Further ROCIS development; embedding schemes
   Dimitrios Pantazis     : SARC Basis sets
   Taras Petrenko         : DFT Hessian,TD-DFT gradient, ASA, ECA, R-Raman, ABS, FL, XAS/XES, NRVS
   Peter Pinski           : DLPNO-MP2, DLPNO-MP2 Gradient
   Christoph Reimann      : Effective Core Potentials
   Marius Retegan         : Local ZFS, SOC
   Christoph Riplinger    : Optimizer, TS searches, QM/MM, DLPNO-CCSD(T), (RO)-DLPNO pert. Triples
   Tobias Risthaus        : Range-separated hybrids, TD-DFT gradient, RPA, STAB
   Michael Roemelt        : Original ROCIS implementation
   Masaaki Saitow         : Open-shell DLPNO-CCSD energy and density
   Barbara Sandhoefer     : DKH picture change effects
   Avijit Sen             : IP-ROCIS
   Kantharuban Sivalingam : CASSCF convergence, NEVPT2, FIC-MRCI
   Bernardo de Souza      : ESD, SOC TD-DFT
   Georgi Stoychev        : AutoAux, RI-MP2 NMR
   Willem Van den Heuvel  : Paramagnetic NMR
   Boris Wezisla          : Elementary symmetry handling
   Frank Wennmohs         : Technical directorship


 We gratefully acknowledge several colleagues who have allowed us to
 interface, adapt or use parts of their codes:
   Stefan Grimme, W. Hujo, H. Kruse,             : VdW corrections, initial TS optimization,
                  C. Bannwarth                     DFT functionals, gCP, sTDA/sTD-DF
   Ed Valeev, F. Pavosevic, A. Kumar             : LibInt (2-el integral package), F12 methods
   Garnet Chan, S. Sharma, J. Yang, R. Olivares  : DMRG
   Ulf Ekstrom                                   : XCFun DFT Library
   Mihaly Kallay                                 : mrcc  (arbitrary order and MRCC methods)
   Andreas Klamt, Michael Diedenhofen            : otool_cosmo (COSMO solvation model)
   Jiri Pittner, Ondrej Demel                    : Mk-CCSD
   Frank Weinhold                                : gennbo (NPA and NBO analysis)
   Christopher J. Cramer and Donald G. Truhlar   : smd solvation model
   Lars Goerigk                                  : TD-DFT with DH, B97 family of functionals
   V. Asgeirsson, H. Jonsson                     : NEB implementation
   FAccTs GmbH                                   : IRC, NEB, NEB-TS, Multilevel, MM, QM/MM, CI optimization
   S Lehtola, MJT Oliveira, MAL Marques          : LibXC Library


 Your calculation uses the libint2 library for the computation of 2-el integrals
 For citations please refer to: http://libint.valeyev.net

 Your ORCA version has been built with support for libXC version: 4.2.3
 For citations please refer to: https://tddft.org/programs/libxc/

 This ORCA versions uses:
   CBLAS   interface :  Fast vector & matrix operations
   LAPACKE interface :  Fast linear algebra routines
   SCALAPACK package :  Parallel linear algebra routines


Your calculation utilizes the atom-pairwise dispersion correction
with the zero-damping scheme (D30)
Cite in your paper:
S.Grimme, J.Antony, S.Ehrlich and H.Krieg, J.Chem.Phys., 132, (2010), 154104 
   

XCFun DFT library Copyright 2009-2010 Ulf Ekstrom and contributors.
See http://admol.org/xcfun for more information. This is free soft-
ware; see the source code for copying conditions. There is ABSOLUTELY
NO WARRANTY; not even for MERCHANTABILITY or FITNESS FOR A PARTICULAR
PURPOSE. For details see the documentation. Scientific users of this 
library should cite U. Ekstrom, L. Visscher, R. Bast, A. J. Thorvald-
sen and K. Ruud; J.Chem.Theor.Comp. 2010, DOI: 10.1021/ct100117s
XCFun Version 0.99 
----- Orbital basis set information -----
Your calculation utilizes the basis: def2-SVP
   F. Weigend and R. Ahlrichs, Phys. Chem. Chem. Phys. 7, 3297 (2005).

================================================================================
                                        WARNINGS
                       Please study these warnings very carefully!
================================================================================


WARNING: your system is open-shell and RHF/RKS was chosen
  ===> : WILL SWITCH to UHF/UKS


WARNING: Geometry Optimization
  ===> : Switching off AutoStart
         For restart on a previous wavefunction, please use MOREAD

INFO   : the flag for use of LIBINT has been found!

================================================================================
                                       INPUT FILE
================================================================================
NAME = 026188732.inp
|  1> # ORCA input file
|  2> # -45.29957047
|  3> ! wB97X-D3 def2-SVP Opt
|  4> * xyz 0 2
|  5>    C        3.50550         0.26550         0.00130
|  6>    C        2.91720        -0.97030         0.00150
|  7>    C        1.50300        -1.12350         0.00030
|  8>    C        0.94920        -2.39830        -0.00060
|  9>    O       -0.35540        -2.67540        -0.00190
| 10>    H        1.58200        -3.27370        -0.00030
| 11>    C        0.70220         0.06560        -0.00040
| 12>    C        1.34730         1.28660        -0.00070
| 13>    C        2.72750         1.42090        -0.00010
| 14>    H        3.16580         2.40480        -0.00060
| 15>    F        0.60660         2.42630        -0.00180
| 16>    N       -0.72600        -0.07280        -0.00010
| 17>    C       -1.37660         0.44090         1.20400
| 18>    H       -0.85920         0.03460         2.07670
| 19>    C       -2.84310        -0.01110         1.19240
| 20>    H       -3.35940         0.38180         2.07010
| 21>    N       -3.54870         0.42170         0.00090
| 22>    H       -0.82510        -1.79430        -0.00180
| 23>    H       -3.62160         1.43600         0.00040
| 24>    C       -2.84370        -0.01210        -1.19060
| 25>    H       -3.36130         0.37860        -2.06850
| 26>    C       -1.37790         0.44160        -1.20340
| 27>    H       -0.86060         0.03690        -2.07680
| 28>    H       -1.33650         1.54090        -1.25090
| 29>    H       -2.88710        -1.10540        -1.21800
| 30>    H       -2.88760        -1.10420         1.22160
| 31>    H       -1.33390         1.54010         1.25280
| 32>    H        3.52220        -1.86390         0.00270
| 33>    H        4.58120         0.35440         0.00220
| 34> *
| 35> 
| 36>                          ****END OF INPUT****
================================================================================

                       *****************************
                       * Geometry Optimization Run *
                       *****************************

Geometry optimization settings:
Update method            Update   .... BFGS
Choice of coordinates    CoordSys .... Z-matrix Internals
Initial Hessian          InHess   .... Almoef's Model

Convergence Tolerances:
Energy Change            TolE     ....  5.0000e-06 Eh
Max. Gradient            TolMAXG  ....  3.0000e-04 Eh/bohr
RMS Gradient             TolRMSG  ....  1.0000e-04 Eh/bohr
Max. Displacement        TolMAXD  ....  4.0000e-03 bohr
RMS Displacement         TolRMSD  ....  2.0000e-03 bohr
Strict Convergence                ....  False
------------------------------------------------------------------------------
                        ORCA OPTIMIZATION COORDINATE SETUP
------------------------------------------------------------------------------

The optimization will be done in new redundant internal coordinates
Making redundant internal coordinates   ...  (new redundants) done
Evaluating the initial hessian          ...  (Almloef) done
Evaluating the coordinates              ...  done
Calculating the B-matrix                .... done
Calculating the G-matrix                .... done
Diagonalizing the G-matrix              .... done
Small eigenvalue found = 1.040e-02
Small eigenvalue found = 2.098e-02
The first mode is                       ....   77
The number of degrees of freedom        ....   81

    -----------------------------------------------------------------
                    Redundant Internal Coordinates


    -----------------------------------------------------------------
         Definition                    Initial Value    Approx d2E/dq
    -----------------------------------------------------------------
      1. B(C   1,C   0)                  1.3687         0.675687   
      2. B(C   2,C   1)                  1.4225         0.554533   
      3. B(C   3,C   2)                  1.3899         0.625036   
      4. B(O   4,C   3)                  1.3337         0.688163   
      5. B(H   5,C   3)                  1.0802         0.373345   
      6. B(C   6,C   2)                  1.4336         0.532305   
      7. B(C   7,C   6)                  1.3809         0.645942   
      8. B(C   8,C   7)                  1.3867         0.632373   
      9. B(C   8,C   0)                  1.3929         0.618123   
     10. B(H   9,C   8)                  1.0771         0.377562   
     11. B(F  10,C   7)                  1.3592         0.582144   
     12. B(N  11,C   6)                  1.4349         0.474522   
     13. B(C  12,N  11)                  1.4619         0.429767   
     14. B(H  13,C  12)                  1.0929         0.356310   
     15. B(C  14,C  12)                  1.5346         0.367287   
     16. B(H  15,C  14)                  1.0915         0.358169   
     17. B(N  16,C  14)                  1.4508         0.447560   
     18. B(H  17,O   4)                  0.9985         0.451419   
     19. B(H  18,N  16)                  1.0169         0.421852   
     20. B(C  19,N  16)                  1.4508         0.447549   
     21. B(H  20,C  19)                  1.0915         0.358186   
     22. B(C  21,C  19)                  1.5345         0.367500   
     23. B(C  21,N  11)                  1.4620         0.429504   
     24. B(H  22,C  21)                  1.0928         0.356417   
     25. B(H  23,C  21)                  1.1011         0.345706   
     26. B(H  24,C  19)                  1.0945         0.354191   
     27. B(H  25,C  14)                  1.0944         0.354333   
     28. B(H  26,C  12)                  1.1011         0.345698   
     29. B(H  27,C   1)                  1.0791         0.374754   
     30. B(H  28,C   0)                  1.0794         0.374444   
     31. A(C   1,C   0,C   8)          120.5886         0.440608   
     32. A(C   8,C   0,H  28)          119.2304         0.355070   
     33. A(C   1,C   0,H  28)          120.1811         0.360486   
     34. A(C   2,C   1,H  27)          117.9167         0.348660   
     35. A(C   0,C   1,C   2)          121.6394         0.432074   
     36. A(C   0,C   1,H  27)          120.4439         0.360537   
     37. A(C   1,C   2,C   6)          117.7756         0.414044   
     38. A(C   1,C   2,C   3)          119.6639         0.426076   
     39. A(C   3,C   2,C   6)          122.5605         0.422969   
     40. A(O   4,C   3,H   5)          113.8705         0.359190   
     41. A(C   2,C   3,O   4)          125.4727         0.440044   
     42. A(C   2,C   3,H   5)          120.6568         0.355563   
     43. A(C   3,O   4,H  17)          106.0698         0.367769   
     44. A(C   2,C   6,C   7)          118.1925         0.425466   
     45. A(C   7,C   6,N  11)          123.3841         0.414130   
     46. A(C   2,C   6,N  11)          118.4233         0.400198   
     47. A(C   6,C   7,F  10)          119.1307         0.427624   
     48. A(C   6,C   7,C   8)          123.4068         0.438843   
     49. A(C   8,C   7,F  10)          117.4625         0.426001   
     50. A(C   7,C   8,H   9)          119.5693         0.356948   
     51. A(C   0,C   8,C   7)          118.3971         0.435375   
     52. A(C   0,C   8,H   9)          122.0336         0.355570   
     53. A(C  12,N  11,C  21)          110.8448         0.376487   
     54. A(C   6,N  11,C  21)          114.1861         0.383006   
     55. A(C   6,N  11,C  12)          114.1580         0.383046   
     56. A(C  14,C  12,H  26)          109.3548         0.321261   
     57. A(H  13,C  12,C  14)          110.4231         0.322856   
     58. A(N  11,C  12,C  14)          108.3951         0.368785   
     59. A(N  11,C  12,H  26)          111.7180         0.327688   
     60. A(N  11,C  12,H  13)          108.4450         0.329327   
     61. A(H  13,C  12,H  26)          108.5043         0.288505   
     62. A(H  15,C  14,N  16)          108.8428         0.331829   
     63. A(C  12,C  14,N  16)          112.5260         0.371366   
     64. A(H  15,C  14,H  25)          108.5939         0.289859   
     65. A(C  12,C  14,H  15)          109.8728         0.323131   
     66. A(C  12,C  14,H  25)          109.4414         0.322561   
     67. A(N  16,C  14,H  25)          107.4636         0.331238   
     68. A(H  18,N  16,C  19)          109.4306         0.338055   
     69. A(C  14,N  16,C  19)          110.4226         0.381854   
     70. A(C  14,N  16,H  18)          109.4398         0.338056   
     71. A(N  16,C  19,H  20)          108.8503         0.331831   
     72. A(C  21,C  19,H  24)          109.4520         0.322571   
     73. A(H  20,C  19,H  24)          108.5801         0.289843   
     74. A(N  16,C  19,H  24)          107.4555         0.331215   
     75. A(H  20,C  19,C  21)          109.9049         0.323165   
     76. A(N  16,C  19,C  21)          112.4968         0.371401   
     77. A(H  22,C  21,H  23)          108.5088         0.288520   
     78. A(C  19,C  21,H  23)          109.3577         0.321292   
     79. A(N  11,C  21,H  23)          111.7159         0.327656   
     80. A(C  19,C  21,H  22)          110.4481         0.322902   
     81. A(N  11,C  21,H  22)          108.4471         0.329310   
     82. A(N  11,C  21,C  19)          108.3633         0.368783   
     83. D(H  27,C   1,C   0,C   8)   -179.9930         0.031971   
     84. D(C   2,C   1,C   0,C   8)     -0.0000         0.031971   
     85. D(H  27,C   1,C   0,H  28)      0.0088         0.031971   
     86. D(C   2,C   1,C   0,H  28)   -179.9982         0.031971   
     87. D(C   6,C   2,C   1,C   0)     -0.0335         0.021049   
     88. D(C   3,C   2,C   1,C   0)    179.9452         0.021049   
     89. D(C   6,C   2,C   1,H  27)    179.9597         0.021049   
     90. D(C   3,C   2,C   1,H  27)     -0.0617         0.021049   
     91. D(H   5,C   3,C   2,C   6)    179.9836         0.027060   
     92. D(O   4,C   3,C   2,C   1)   -179.9924         0.027060   
     93. D(H   5,C   3,C   2,C   1)      0.0060         0.027060   
     94. D(O   4,C   3,C   2,C   6)     -0.0147         0.027060   
     95. D(H  17,O   4,C   3,C   2)     -0.0163         0.035350   
     96. D(H  17,O   4,C   3,H   5)    179.9853         0.035350   
     97. D(N  11,C   6,C   2,C   1)   -179.9313         0.019345   
     98. D(N  11,C   6,C   2,C   3)      0.0906         0.019345   
     99. D(C   7,C   6,C   2,C   3)   -179.9390         0.019345   
    100. D(C   7,C   6,C   2,C   1)      0.0390         0.019345   
    101. D(F  10,C   7,C   6,N  11)     -0.0523         0.029026   
    102. D(F  10,C   7,C   6,C   2)    179.9789         0.029026   
    103. D(C   8,C   7,C   6,N  11)    179.9559         0.029026   
    104. D(C   8,C   7,C   6,C   2)     -0.0128         0.029026   
    105. D(H   9,C   8,C   7,F  10)     -0.0053         0.027740   
    106. D(H   9,C   8,C   7,C   6)    179.9866         0.027740   
    107. D(C   0,C   8,C   7,F  10)    179.9873         0.027740   
    108. D(C   0,C   8,C   7,C   6)     -0.0208         0.027740   
    109. D(H   9,C   8,C   0,H  28)      0.0179         0.026429   
    110. D(H   9,C   8,C   0,C   1)   -179.9803         0.026429   
    111. D(C   7,C   8,C   0,H  28)   -179.9745         0.026429   
    112. D(C   7,C   8,C   0,C   1)      0.0273         0.026429   
    113. D(C  12,N  11,C   6,C   2)    115.4536         0.017755   
    114. D(C  21,N  11,C   6,C   7)     64.4591         0.017755   
    115. D(C  21,N  11,C   6,C   2)   -115.5722         0.017755   
    116. D(C  12,N  11,C   6,C   7)    -64.5151         0.017755   
    117. D(H  26,C  12,N  11,C  21)    -60.3779         0.015747   
    118. D(H  26,C  12,N  11,C   6)     70.2588         0.015747   
    119. D(C  14,C  12,N  11,C  21)     60.1803         0.015747   
    120. D(H  13,C  12,N  11,C  21)   -179.9141         0.015747   
    121. D(C  14,C  12,N  11,C   6)   -169.1831         0.015747   
    122. D(H  13,C  12,N  11,C   6)    -49.2775         0.015747   
    123. D(H  25,C  14,C  12,H  26)   -175.6855         0.010794   
    124. D(H  25,C  14,C  12,H  13)    -56.3616         0.010794   
    125. D(H  25,C  14,C  12,N  11)     62.2995         0.010794   
    126. D(N  16,C  14,C  12,H  26)     64.9133         0.010794   
    127. D(N  16,C  14,C  12,H  13)   -175.7627         0.010794   
    128. D(N  16,C  14,C  12,N  11)    -57.1017         0.010794   
    129. D(H  15,C  14,C  12,H  26)    -56.5332         0.010794   
    130. D(H  15,C  14,C  12,H  13)     62.7907         0.010794   
    131. D(H  15,C  14,C  12,N  11)   -178.5482         0.010794   
    132. D(C  19,N  16,C  14,H  15)    176.4433         0.017086   
    133. D(C  19,N  16,C  14,C  12)     54.4118         0.017086   
    134. D(H  18,N  16,C  14,H  25)    173.3454         0.017086   
    135. D(H  18,N  16,C  14,H  15)     55.9225         0.017086   
    136. D(C  19,N  16,C  14,H  25)    -66.1337         0.017086   
    137. D(H  18,N  16,C  14,C  12)    -66.1090         0.017086   
    138. D(H  24,C  19,N  16,H  18)   -173.4172         0.017085   
    139. D(H  24,C  19,N  16,C  14)     66.0565         0.017085   
    140. D(C  21,C  19,N  16,H  18)     66.0472         0.017085   
    141. D(C  21,C  19,N  16,C  14)    -54.4791         0.017085   
    142. D(H  20,C  19,N  16,H  18)    -56.0110         0.017085   
    143. D(H  20,C  19,N  16,C  14)   -176.5374         0.017085   
    144. D(C  19,C  21,N  11,C  12)    -60.2436         0.015728   
    145. D(C  19,C  21,N  11,C   6)    169.1345         0.015728   
    146. D(H  23,C  21,C  19,H  24)    175.8570         0.010806   
    147. D(H  23,C  21,C  19,N  16)    -64.7633         0.010806   
    148. D(H  22,C  21,C  19,H  24)     56.5104         0.010806   
    149. D(H  22,C  21,C  19,H  20)    -62.6510         0.010806   
    150. D(H  22,C  21,C  19,N  16)    175.8900         0.010806   
    151. D(N  11,C  21,C  19,H  24)    -62.1485         0.010806   
    152. D(N  11,C  21,C  19,H  20)    178.6902         0.010806   
    153. D(N  11,C  21,C  19,N  16)     57.2311         0.010806   
    154. D(H  23,C  21,N  11,C  12)     60.2959         0.015728   
    155. D(H  23,C  21,N  11,C   6)    -70.3260         0.015728   
    156. D(H  23,C  21,C  19,H  20)     56.6957         0.010806   
    157. D(H  22,C  21,N  11,C  12)    179.8378         0.015728   
    158. D(H  22,C  21,N  11,C   6)     49.2159         0.015728   
    -----------------------------------------------------------------

Number of atoms                         .... 29
Number of degrees of freedom            .... 158

         *************************************************************
         *                GEOMETRY OPTIMIZATION CYCLE   1            *
         *************************************************************
---------------------------------
CARTESIAN COORDINATES (ANGSTROEM)
---------------------------------
  C      3.505500    0.265500    0.001300
  C      2.917200   -0.970300    0.001500
  C      1.503000   -1.123500    0.000300
  C      0.949200   -2.398300   -0.000600
  O     -0.355400   -2.675400   -0.001900
  H      1.582000   -3.273700   -0.000300
  C      0.702200    0.065600   -0.000400
  C      1.347300    1.286600   -0.000700
  C      2.727500    1.420900   -0.000100
  H      3.165800    2.404800   -0.000600
  F      0.606600    2.426300   -0.001800
  N     -0.726000   -0.072800   -0.000100
  C     -1.376600    0.440900    1.204000
  H     -0.859200    0.034600    2.076700
  C     -2.843100   -0.011100    1.192400
  H     -3.359400    0.381800    2.070100
  N     -3.548700    0.421700    0.000900
  H     -0.825100   -1.794300   -0.001800
  H     -3.621600    1.436000    0.000400
  C     -2.843700   -0.012100   -1.190600
  H     -3.361300    0.378600   -2.068500
  C     -1.377900    0.441600   -1.203400
  H     -0.860600    0.036900   -2.076800
  H     -1.336500    1.540900   -1.250900
  H     -2.887100   -1.105400   -1.218000
  H     -2.887600   -1.104200    1.221600
  H     -1.333900    1.540100    1.252800
  H      3.522200   -1.863900    0.002700
  H      4.581200    0.354400    0.002200

----------------------------
CARTESIAN COORDINATES (A.U.)
----------------------------
  NO LB      ZA    FRAG     MASS         X           Y           Z
   0 C     6.0000    0    12.011    6.624435    0.501722    0.002457
   1 C     6.0000    0    12.011    5.512709   -1.833601    0.002835
   2 C     6.0000    0    12.011    2.840258   -2.123107    0.000567
   3 C     6.0000    0    12.011    1.793728   -4.532130   -0.001134
   4 O     8.0000    0    15.999   -0.671609   -5.055773   -0.003590
   5 H     1.0000    0     1.008    2.989547   -6.186396   -0.000567
   6 C     6.0000    0    12.011    1.326966    0.123966   -0.000756
   7 C     6.0000    0    12.011    2.546028    2.431322   -0.001323
   8 C     6.0000    0    12.011    5.154228    2.685112   -0.000189
   9 H     1.0000    0     1.008    5.982495    4.544413   -0.001134
  10 F     9.0000    0    18.998    1.146308    4.585043   -0.003402
  11 N     7.0000    0    14.007   -1.371941   -0.137572   -0.000189
  12 C     6.0000    0    12.011   -2.601397    0.833180    2.275230
  13 H     1.0000    0     1.008   -1.623653    0.065385    3.924394
  14 C     6.0000    0    12.011   -5.372680   -0.020976    2.253309
  15 H     1.0000    0     1.008   -6.348346    0.721497    3.911922
  16 N     7.0000    0    14.007   -6.706071    0.796898    0.001701
  17 H     1.0000    0     1.008   -1.559213   -3.390736   -0.003402
  18 H     1.0000    0     1.008   -6.843832    2.713647    0.000756
  19 C     6.0000    0    12.011   -5.373814   -0.022866   -2.249908
  20 H     1.0000    0     1.008   -6.351936    0.715450   -3.908899
  21 C     6.0000    0    12.011   -2.603854    0.834503   -2.274096
  22 H     1.0000    0     1.008   -1.626298    0.069731   -3.924583
  23 H     1.0000    0     1.008   -2.525619    2.911879   -2.363858
  24 H     1.0000    0     1.008   -5.455828   -2.088903   -2.301686
  25 H     1.0000    0     1.008   -5.456773   -2.086636    2.308489
  26 H     1.0000    0     1.008   -2.520706    2.910367    2.367449
  27 H     1.0000    0     1.008    6.655993   -3.522261    0.005102
  28 H     1.0000    0     1.008    8.657213    0.669719    0.004157

--------------------------------
INTERNAL COORDINATES (ANGSTROEM)
--------------------------------
 C      0   0   0     0.000000000000     0.00000000     0.00000000
 C      1   0   0     1.368684978364     0.00000000     0.00000000
 C      2   1   0     1.422474365323   121.63939457     0.00000000
 C      3   2   1     1.389895783863   119.66389026   179.94521725
 O      4   3   2     1.333704337550   125.47270076   180.00764526
 H      4   3   2     1.080167158360   120.65681653     0.00000000
 C      3   2   1     1.433610804926   117.77559805   359.96654610
 C      7   3   2     1.380939933524   118.19251658     0.03902070
 C      8   7   3     1.386718749423   123.40681395     0.00000000
 H      9   8   7     1.077110184707   119.56927314   179.98661609
 F      8   7   3     1.359247508734   119.13067346   179.97892456
 N      7   3   2     1.434890201374   118.42332836   180.06865668
 C     12   7   3     1.461856648239   114.15796088   115.45359675
 H     13  12   7     1.092880478369   108.44496314   310.72252535
 C     13  12   7     1.534620738163   108.39513643   190.81690471
 H     15  13  12     1.091463874803   109.87278488   181.45176841
 N     15  13  12     1.450813375317   112.52599971   302.89827912
 H      5   4   3     0.998476494465   106.06979255     0.00000000
 H     17  15  13     1.016916491163   109.43982301   293.89095473
 C     17  15  13     1.450820350698   110.42256484    54.41181195
 H     20  17  15     1.091450713500   108.85033907   183.46261623
 C     12   7   3     1.462023207750   114.18609381   244.42777086
 H     22  12   7     1.092798673132   108.44706496    49.21593216
 H     22  12   7     1.101104309319   111.71589273   289.67399427
 H     20  17  15     1.094504093186   107.45552266    66.05648470
 H     15  13  12     1.094395038366   109.44135744    62.29946056
 H     13  12   7     1.101110970793   111.71799026    70.25875065
 H      2   1   3     1.079141973977   120.44386141   180.00704925
 H      1   2   3     1.079367643577   120.18107382   180.00179635

---------------------------
INTERNAL COORDINATES (A.U.)
---------------------------
 C      0   0   0     0.000000000000     0.00000000     0.00000000
 C      1   0   0     2.586439772720     0.00000000     0.00000000
 C      2   1   0     2.688086982983   121.63939457     0.00000000
 C      3   2   1     2.626522386193   119.66389026   179.94521725
 O      4   3   2     2.520335941593   125.47270076   180.00764526
 H      4   3   2     2.041220108157   120.65681653     0.00000000
 C      3   2   1     2.709131803940   117.77559805   359.96654610
 C      7   3   2     2.609598281755   118.19251658     0.03902070
 C      8   7   3     2.620518661182   123.40681395     0.00000000
 H      9   8   7     2.035443265154   119.56927314   179.98661609
 F      8   7   3     2.568605539722   119.13067346   179.97892456
 N      7   3   2     2.711549512845   118.42332836   180.06865668
 C     12   7   3     2.762508712223   114.15796088   115.45359675
 H     13  12   7     2.065244801226   108.44496314   310.72252535
 C     13  12   7     2.900012914564   108.39513643   190.81690471
 H     15  13  12     2.062567808446   109.87278488   181.45176841
 N     15  13  12     2.741639950780   112.52599971   302.89827912
 H      5   4   3     1.886847125697   106.06979255     0.00000000
 H     17  15  13     1.921693669367   109.43982301   293.89095473
 C     17  15  13     2.741653132339   110.42256484    54.41181195
 H     20  17  15     2.062542937188   108.85033907   183.46261623
 C     12   7   3     2.762823464085   114.18609381   244.42777086
 H     22  12   7     2.065090211733   108.44706496    49.21593216
 H     22  12   7     2.080785589493   111.71589273   289.67399427
 H     20  17  15     2.068312988577   107.45552266    66.05648470
 H     15  13  12     2.068106904834   109.44135744    62.29946056
 H     13  12   7     2.080798177854   111.71799026    70.25875065
 H      2   1   3     2.039282790437   120.44386141   180.00704925
 H      1   2   3     2.039709244176   120.18107382   180.00179635

---------------------
BASIS SET INFORMATION
---------------------
There are 5 groups of distinct atoms

 Group   1 Type C   : 7s4p1d contracted to 3s2p1d pattern {511/31/1}
 Group   2 Type O   : 7s4p1d contracted to 3s2p1d pattern {511/31/1}
 Group   3 Type H   : 4s1p contracted to 2s1p pattern {31/1}
 Group   4 Type F   : 7s4p1d contracted to 3s2p1d pattern {511/31/1}
 Group   5 Type N   : 7s4p1d contracted to 3s2p1d pattern {511/31/1}

Atom   0C    basis set group =>   1
Atom   1C    basis set group =>   1
Atom   2C    basis set group =>   1
Atom   3C    basis set group =>   1
Atom   4O    basis set group =>   2
Atom   5H    basis set group =>   3
Atom   6C    basis set group =>   1
Atom   7C    basis set group =>   1
Atom   8C    basis set group =>   1
Atom   9H    basis set group =>   3
Atom  10F    basis set group =>   4
Atom  11N    basis set group =>   5
Atom  12C    basis set group =>   1
Atom  13H    basis set group =>   3
Atom  14C    basis set group =>   1
Atom  15H    basis set group =>   3
Atom  16N    basis set group =>   5
Atom  17H    basis set group =>   3
Atom  18H    basis set group =>   3
Atom  19C    basis set group =>   1
Atom  20H    basis set group =>   3
Atom  21C    basis set group =>   1
Atom  22H    basis set group =>   3
Atom  23H    basis set group =>   3
Atom  24H    basis set group =>   3
Atom  25H    basis set group =>   3
Atom  26H    basis set group =>   3
Atom  27H    basis set group =>   3
Atom  28H    basis set group =>   3
------------------------------------------------------------------------------
                           ORCA GTO INTEGRAL CALCULATION
------------------------------------------------------------------------------

                         BASIS SET STATISTICS AND STARTUP INFO

 # of primitive gaussian shells          ...  250
 # of primitive gaussian functions       ...  458
 # of contracted shells                  ...  132
 # of contracted basis functions         ...  280
 Highest angular momentum                ...    2
 Maximum contraction depth               ...    5
 Integral package used                   ... LIBINT
 Integral threshhold            Thresh   ...  2.500e-11
 Primitive cut-off              TCut     ...  2.500e-12


------------------------------ INTEGRAL EVALUATION ----------------------------


 * One electron integrals 
 Pre-screening matrix                    ... done
 Shell pair data                         ... done (   0.003 sec)

-------------------------------------------------------------------------------
                                 ORCA SCF
-------------------------------------------------------------------------------

------------
SCF SETTINGS
------------
Hamiltonian:
 Density Functional     Method          .... DFT(GTOs)
 Exchange Functional    Exchange        .... WB97X-D3
 Correlation Functional Correlation     .... WB97X-D3
 Gradients option       PostSCFGGA      .... off
 Hybrid DFT is turned on
   Fraction HF Exchange ScalHFX         ....  0.195728
   Scaling of DF-GGA-X  ScalDFX         ....  0.000000
   Scaling of DF-GGA-C  ScalDFC         ....  1.000000
   Scaling of DF-LDA-C  ScalLDAC        ....  1.000000
   Perturbative correction              ....  0.000000
   Density functional embedding theory  .... OFF
 Long-range corrected/Screened/Range-Separated Hybrid DFT is turned on
   Amount of maximum screened exact exchange              ....  0.804272
   Range separation parameter mu (erf(mu*r12)/r12)        ....  0.250000


General Settings:
 Integral files         IntName         .... 026188732
 Hartree-Fock type      HFTyp           .... UHF
 Total Charge           Charge          ....    0
 Multiplicity           Mult            ....    2
 Number of Electrons    NEL             ....  111
 Basis Dimension        Dim             ....  280
 Nuclear Repulsion      ENuc            ....   1048.9880537841 Eh

Convergence Acceleration:
 DIIS                   CNVDIIS         .... on
   Start iteration      DIISMaxIt       ....    12
   Startup error        DIISStart       ....  0.200000
   # of expansion vecs  DIISMaxEq       ....     5
   Bias factor          DIISBfac        ....   1.050
   Max. coefficient     DIISMaxC        ....  10.000
 Newton-Raphson         CNVNR           .... off
 SOSCF                  CNVSOSCF        .... off
 Level Shifting         CNVShift        .... on
   Level shift para.    LevelShift      ....    0.2500
   Turn off err/grad.   ShiftErr        ....    0.0010
 Zerner damping         CNVZerner       .... off
 Static damping         CNVDamp         .... on
   Fraction old density DampFac         ....    0.7000
   Max. Damping (<1)    DampMax         ....    0.9800
   Min. Damping (>=0)   DampMin         ....    0.0000
   Turn off err/grad.   DampErr         ....    0.1000
 Fernandez-Rico         CNVRico         .... off

SCF Procedure:
 Maximum # iterations   MaxIter         ....   125
 SCF integral mode      SCFMode         .... Direct
   Integral package                     .... LIBINT
 Reset frequency        DirectResetFreq ....    20
 Integral Threshold     Thresh          ....  2.500e-11 Eh
 Primitive CutOff       TCut            ....  2.500e-12 Eh

Convergence Tolerance:
 Convergence Check Mode ConvCheckMode   .... Total+1el-Energy
 Convergence forced     ConvForced      .... 0
 Energy Change          TolE            ....  1.000e-08 Eh
 1-El. energy change                    ....  1.000e-05 Eh
 DIIS Error             TolErr          ....  5.000e-07


Diagonalization of the overlap matrix:
Smallest eigenvalue                        ... 1.980e-04
Time for diagonalization                   ...    0.076 sec
Threshold for overlap eigenvalues          ... 1.000e-08
Number of eigenvalues below threshold      ... 0
Time for construction of square roots      ...    0.005 sec
Total time needed                          ...    0.081 sec

-------------------
DFT GRID GENERATION
-------------------

General Integration Accuracy     IntAcc      ...  4.340
Radial Grid Type                 RadialGrid  ... Gauss-Chebyshev
Angular Grid (max. acc.)         AngularGrid ... Lebedev-110
Angular grid pruning method      GridPruning ... 3 (G Style)
Weight generation scheme         WeightScheme... Becke
Basis function cutoff            BFCut       ...    1.0000e-11
Integration weight cutoff        WCut        ...    1.0000e-14
Grids for H and He will be reduced by one unit

# of grid points (after initial pruning)     ...  36192 (   0.0 sec)
# of grid points (after weights+screening)   ...  32296 (   0.2 sec)
nearest neighbour list constructed           ...    0.0 sec
Grid point re-assignment to atoms done       ...    0.0 sec
Grid point division into batches done        ...    0.0 sec
Reduced shell lists constructed in    0.3 sec

Total number of grid points                  ...    32296
Total number of batches                      ...      518
Average number of points per batch           ...       62
Average number of grid points per atom       ...     1114
Average number of shells per batch           ...    81.66 (61.87%)
Average number of basis functions per batch  ...   166.18 (59.35%)
Average number of large shells per batch     ...    58.29 (71.38%)
Average number of large basis fcns per batch ...   117.18 (70.51%)
Maximum spatial batch extension              ...  20.05, 20.32, 25.60 au
Average spatial batch extension              ...   3.22,  3.37,  3.62 au

Time for grid setup =    0.501 sec

------------------------------
INITIAL GUESS: MODEL POTENTIAL
------------------------------
Loading Hartree-Fock densities                     ... done
Calculating cut-offs                               ... done
Setting up the integral package                    ... done
Initializing the effective Hamiltonian             ... done
Starting the Coulomb interaction                   ... done (   0.4 sec)
Reading the grid                                   ... done
Mapping shells                                     ... done
Starting the XC term evaluation                    ... done (   0.5 sec)
  promolecular density results
     # of electrons  =    110.994143140
     EX              =    -91.715477910
     EC              =     -3.755336481
     EX+EC           =    -95.470814391
Transforming the Hamiltonian                       ... done (   0.0 sec)
Diagonalizing the Hamiltonian                      ... done (   0.0 sec)
Back transforming the eigenvectors                 ... done (   0.0 sec)
Now organizing SCF variables                       ... done
                      ------------------
                      INITIAL GUESS DONE (   1.5 sec)
                      ------------------
--------------
SCF ITERATIONS
--------------
ITER       Energy         Delta-E        Max-DP      RMS-DP      [F,P]     Damp
               ***  Starting incremental Fock matrix formation  ***
  0   -711.1247333646   0.000000000000 0.03330816  0.00078023  0.1994051 0.7000
  1   -711.2333971190  -0.108663754389 0.02050536  0.00057308  0.1104934 0.7000
                               ***Turning on DIIS***
  2   -711.2905789036  -0.057181784669 0.03691400  0.00117898  0.0509502 0.0000
  3   -711.3876776572  -0.097098753509 0.01640789  0.00033550  0.0460551 0.0000
  4   -711.4007734481  -0.013095790915 0.00639102  0.00009231  0.0059619 0.0000
  5   -711.4015636554  -0.000790207332 0.00402014  0.00005139  0.0032430 0.0000
  6   -711.4019363579  -0.000372702516 0.00347556  0.00004040  0.0015930 0.0000
  7   -711.4021688465  -0.000232488621 0.00329825  0.00003691  0.0011614 0.0000
  8   -711.4023301888  -0.000161342246 0.00414950  0.00004945  0.0007587 0.0000
  9   -711.4024632720  -0.000133083217 0.00159153  0.00002054  0.0003163 0.0000
 10   -711.4024936685  -0.000030396507 0.00099528  0.00001166  0.0001864 0.0000
 11   -711.4025049655  -0.000011296993 0.00060173  0.00000679  0.0000960 0.0000
 12   -711.4025096694  -0.000004703900 0.00054673  0.00000619  0.0000682 0.0000
 13   -711.4025126250  -0.000002955627 0.00028507  0.00000315  0.0000614 0.0000
 14   -711.4025136566  -0.000001031526 0.00025525  0.00000292  0.0000487 0.0000
 15   -711.4025143219  -0.000000665362 0.00036411  0.00000420  0.0000399 0.0000
 16   -711.4025148093  -0.000000487422 0.00007464  0.00000105  0.0000219 0.0000
 17   -711.4025148541  -0.000000044754 0.00008898  0.00000108  0.0000132 0.0000
 18   -711.4025148613  -0.000000007252 0.00002681  0.00000029  0.0000069 0.0000
 19   -711.4025148639  -0.000000002539 0.00001556  0.00000019  0.0000031 0.0000
               *** Restarting incremental Fock matrix formation ***
                                   *** Resetting DIIS ***
                 **** Energy Check signals convergence ****

               *****************************************************
               *                     SUCCESS                       *
               *           SCF CONVERGED AFTER  20 CYCLES          *
               *****************************************************

Setting up the final grid:

General Integration Accuracy     IntAcc      ...  4.670
Radial Grid Type                 RadialGrid  ... Gauss-Chebyshev
Angular Grid (max. acc.)         AngularGrid ... Lebedev-302
Angular grid pruning method      GridPruning ... 3 (G Style)
Weight generation scheme         WeightScheme... Becke
Basis function cutoff            BFCut       ...    1.0000e-11
Integration weight cutoff        WCut        ...    1.0000e-14
Grids for H and He will be reduced by one unit

# of grid points (after initial pruning)     ... 140756 (   0.1 sec)
# of grid points (after weights+screening)   ... 123117 (   0.7 sec)
nearest neighbour list constructed           ...    0.0 sec
Grid point re-assignment to atoms done       ...    0.0 sec
Grid point division into batches done        ...    0.4 sec
Reduced shell lists constructed in    1.4 sec

Total number of grid points                  ...   123117
Total number of batches                      ...     1938
Average number of points per batch           ...       63
Average number of grid points per atom       ...     4245
Average number of shells per batch           ...    74.68 (56.58%)
Average number of basis functions per batch  ...   150.29 (53.67%)
Average number of large shells per batch     ...    52.29 (70.02%)
Average number of large basis fcns per batch ...   103.87 (69.11%)
Maximum spatial batch extension              ...  19.40, 23.36, 37.36 au
Average spatial batch extension              ...   2.14,  2.22,  2.28 au

Final grid set up in    2.2 sec
Final integration                            ... done (   3.7 sec)
Change in XC energy                          ...     0.001672900
Integrated number of electrons               ...   111.000016421
Previous integrated no of electrons          ...   110.998197623

----------------
TOTAL SCF ENERGY
----------------

Total Energy       :         -711.40084196 Eh          -19358.20106 eV

Components:
Nuclear Repulsion  :         1048.98805378 Eh           28544.41611 eV
Electronic Energy  :        -1760.38889574 Eh          -47902.61718 eV
One Electron Energy:        -3051.06313572 Eh          -83023.64876 eV
Two Electron Energy:         1290.67423998 Eh           35121.03159 eV

Virial components:
Potential Energy   :        -1416.05523918 Eh          -38532.82203 eV
Kinetic Energy     :          704.65439722 Eh           19174.62097 eV
Virial Ratio       :            2.00957412


DFT components:
N(Alpha)           :       56.000010647193 electrons
N(Beta)            :       55.000005774210 electrons
N(Total)           :      111.000016421403 electrons
E(XC)              :      -67.459312134218 Eh       
DFET-embed. en.    :        0.000000000000 Eh       

---------------
SCF CONVERGENCE
---------------

  Last Energy change         ...    5.7157e-09  Tolerance :   1.0000e-08
  Last MAX-Density change    ...    5.8164e-06  Tolerance :   1.0000e-07
  Last RMS-Density change    ...    6.7979e-08  Tolerance :   5.0000e-09
  Last DIIS Error            ...    2.5287e-06  Tolerance :   5.0000e-07

             **** THE GBW FILE WAS UPDATED (026188732.gbw) ****
             **** DENSITY FILE WAS UPDATED (026188732.scfp) ****
             **** ENERGY FILE WAS UPDATED (026188732.en.tmp) ****
----------------------
UHF SPIN CONTAMINATION
----------------------

Warning: in a DFT calculation there is little theoretical justification to 
         calculate <S**2> as in Hartree-Fock theory. We will do it anyways
         but you should keep in mind that the values have only limited relevance

Expectation value of <S**2>     :     0.799294
Ideal value S*(S+1) for S=0.5   :     0.750000
Deviation                       :     0.049294

             **** THE GBW FILE WAS UPDATED (026188732.gbw) ****
             **** DENSITY FILE WAS UPDATED (026188732.scfp) ****
----------------
ORBITAL ENERGIES
----------------
                 SPIN UP ORBITALS
  NO   OCC          E(Eh)            E(eV) 
   0   1.0000     -24.804400      -674.9620 
   1   1.0000     -19.256849      -524.0055 
   2   1.0000     -14.457151      -393.3991 
   3   1.0000     -14.417987      -392.3334 
   4   1.0000     -10.375541      -282.3328 
   5   1.0000     -10.342510      -281.4340 
   6   1.0000     -10.328744      -281.0594 
   7   1.0000     -10.319949      -280.8201 
   8   1.0000     -10.319923      -280.8194 
   9   1.0000     -10.314647      -280.6758 
  10   1.0000     -10.314643      -280.6757 
  11   1.0000     -10.302885      -280.3558 
  12   1.0000     -10.297241      -280.2022 
  13   1.0000     -10.293016      -280.0872 
  14   1.0000     -10.291828      -280.0549 
  15   1.0000      -1.321141       -35.9501 
  16   1.0000      -1.161522       -31.6066 
  17   1.0000      -1.078836       -29.3566 
  18   1.0000      -1.019864       -27.7519 
  19   1.0000      -0.974192       -26.5091 
  20   1.0000      -0.889629       -24.2080 
  21   1.0000      -0.883170       -24.0323 
  22   1.0000      -0.866451       -23.5773 
  23   1.0000      -0.800474       -21.7820 
  24   1.0000      -0.771654       -20.9978 
  25   1.0000      -0.758563       -20.6415 
  26   1.0000      -0.732631       -19.9359 
  27   1.0000      -0.713091       -19.4042 
  28   1.0000      -0.695855       -18.9352 
  29   1.0000      -0.660197       -17.9649 
  30   1.0000      -0.633547       -17.2397 
  31   1.0000      -0.617481       -16.8025 
  32   1.0000      -0.587835       -15.9958 
  33   1.0000      -0.580811       -15.8047 
  34   1.0000      -0.579585       -15.7713 
  35   1.0000      -0.575911       -15.6713 
  36   1.0000      -0.568255       -15.4630 
  37   1.0000      -0.561297       -15.2737 
  38   1.0000      -0.546800       -14.8792 
  39   1.0000      -0.544161       -14.8074 
  40   1.0000      -0.521677       -14.1956 
  41   1.0000      -0.515588       -14.0299 
  42   1.0000      -0.500070       -13.6076 
  43   1.0000      -0.496338       -13.5060 
  44   1.0000      -0.482277       -13.1234 
  45   1.0000      -0.465494       -12.6667 
  46   1.0000      -0.464551       -12.6411 
  47   1.0000      -0.459301       -12.4982 
  48   1.0000      -0.457679       -12.4541 
  49   1.0000      -0.446787       -12.1577 
  50   1.0000      -0.444808       -12.1038 
  51   1.0000      -0.369797       -10.0627 
  52   1.0000      -0.349483        -9.5099 
  53   1.0000      -0.347652        -9.4601 
  54   1.0000      -0.315541        -8.5863 
  55   1.0000      -0.234510        -6.3813 
  56   0.0000       0.069522         1.8918 
  57   0.0000       0.098737         2.6868 
  58   0.0000       0.134137         3.6500 
  59   0.0000       0.155369         4.2278 
  60   0.0000       0.158137         4.3031 
  61   0.0000       0.173059         4.7092 
  62   0.0000       0.174951         4.7606 
  63   0.0000       0.191421         5.2088 
  64   0.0000       0.206847         5.6286 
  65   0.0000       0.213102         5.7988 
  66   0.0000       0.218556         5.9472 
  67   0.0000       0.221332         6.0227 
  68   0.0000       0.222886         6.0650 
  69   0.0000       0.231651         6.3035 
  70   0.0000       0.240395         6.5415 
  71   0.0000       0.245654         6.6846 
  72   0.0000       0.252369         6.8673 
  73   0.0000       0.260549         7.0899 
  74   0.0000       0.266364         7.2481 
  75   0.0000       0.294711         8.0195 
  76   0.0000       0.313829         8.5397 
  77   0.0000       0.323598         8.8055 
  78   0.0000       0.335161         9.1202 
  79   0.0000       0.339252         9.2315 
  80   0.0000       0.356540         9.7020 
  81   0.0000       0.361175         9.8281 
  82   0.0000       0.383171        10.4266 
  83   0.0000       0.400702        10.9036 
  84   0.0000       0.412514        11.2251 
  85   0.0000       0.427543        11.6340 
  86   0.0000       0.435647        11.8546 
  87   0.0000       0.460945        12.5430 
  88   0.0000       0.473289        12.8789 
  89   0.0000       0.506828        13.7915 
  90   0.0000       0.517704        14.0874 
  91   0.0000       0.531076        14.4513 
  92   0.0000       0.541291        14.7293 
  93   0.0000       0.542562        14.7639 
  94   0.0000       0.549955        14.9650 
  95   0.0000       0.559064        15.2129 
  96   0.0000       0.568354        15.4657 
  97   0.0000       0.572983        15.5917 
  98   0.0000       0.579624        15.7724 
  99   0.0000       0.594034        16.1645 
 100   0.0000       0.600683        16.3454 
 101   0.0000       0.602802        16.4031 
 102   0.0000       0.615195        16.7403 
 103   0.0000       0.654966        17.8225 
 104   0.0000       0.655591        17.8395 
 105   0.0000       0.679466        18.4892 
 106   0.0000       0.681610        18.5475 
 107   0.0000       0.692942        18.8559 
 108   0.0000       0.708917        19.2906 
 109   0.0000       0.709162        19.2973 
 110   0.0000       0.718733        19.5577 
 111   0.0000       0.724029        19.7018 
 112   0.0000       0.737713        20.0742 
 113   0.0000       0.749346        20.3907 
 114   0.0000       0.749867        20.4049 
 115   0.0000       0.753476        20.5031 
 116   0.0000       0.758536        20.6408 
 117   0.0000       0.765123        20.8200 
 118   0.0000       0.768895        20.9227 
 119   0.0000       0.774931        21.0869 
 120   0.0000       0.782174        21.2840 
 121   0.0000       0.784964        21.3600 
 122   0.0000       0.787698        21.4343 
 123   0.0000       0.792552        21.5664 
 124   0.0000       0.810575        22.0569 
 125   0.0000       0.815931        22.2026 
 126   0.0000       0.833275        22.6746 
 127   0.0000       0.837290        22.7838 
 128   0.0000       0.843700        22.9582 
 129   0.0000       0.847593        23.0642 
 130   0.0000       0.853841        23.2342 
 131   0.0000       0.867299        23.6004 
 132   0.0000       0.894321        24.3357 
 133   0.0000       0.901555        24.5326 
 134   0.0000       0.906774        24.6746 
 135   0.0000       0.942632        25.6503 
 136   0.0000       0.952698        25.9242 
 137   0.0000       0.991448        26.9787 
 138   0.0000       1.012800        27.5597 
 139   0.0000       1.027738        27.9662 
 140   0.0000       1.050660        28.5899 
 141   0.0000       1.100845        29.9555 
 142   0.0000       1.104969        30.0677 
 143   0.0000       1.126881        30.6640 
 144   0.0000       1.164628        31.6911 
 145   0.0000       1.184247        32.2250 
 146   0.0000       1.188526        32.3414 
 147   0.0000       1.229857        33.4661 
 148   0.0000       1.235453        33.6184 
 149   0.0000       1.245776        33.8993 
 150   0.0000       1.269343        34.5406 
 151   0.0000       1.289328        35.0844 
 152   0.0000       1.289893        35.0998 
 153   0.0000       1.320004        35.9191 
 154   0.0000       1.326206        36.0879 
 155   0.0000       1.326882        36.1063 
 156   0.0000       1.333881        36.2967 
 157   0.0000       1.364637        37.1337 
 158   0.0000       1.380269        37.5590 
 159   0.0000       1.393026        37.9062 
 160   0.0000       1.399676        38.0871 
 161   0.0000       1.403789        38.1990 
 162   0.0000       1.429378        38.8953 
 163   0.0000       1.441569        39.2271 
 164   0.0000       1.462864        39.8066 
 165   0.0000       1.472482        40.0683 
 166   0.0000       1.491238        40.5786 
 167   0.0000       1.509870        41.0857 
 168   0.0000       1.577707        42.9316 
 169   0.0000       1.581650        43.0389 
 170   0.0000       1.602541        43.6074 
 171   0.0000       1.614930        43.9445 
 172   0.0000       1.632394        44.4197 
 173   0.0000       1.660773        45.1919 
 174   0.0000       1.690232        45.9935 
 175   0.0000       1.701705        46.3057 
 176   0.0000       1.729971        47.0749 
 177   0.0000       1.733397        47.1681 
 178   0.0000       1.781376        48.4737 
 179   0.0000       1.789004        48.6813 
 180   0.0000       1.795189        48.8496 
 181   0.0000       1.800257        48.9875 
 182   0.0000       1.815176        49.3935 
 183   0.0000       1.828011        49.7427 
 184   0.0000       1.838308        50.0229 
 185   0.0000       1.852939        50.4210 
 186   0.0000       1.859049        50.5873 
 187   0.0000       1.868741        50.8510 
 188   0.0000       1.878646        51.1206 
 189   0.0000       1.881512        51.1986 
 190   0.0000       1.888832        51.3977 
 191   0.0000       1.904531        51.8249 
 192   0.0000       1.920816        52.2681 
 193   0.0000       1.920863        52.2693 
 194   0.0000       1.936459        52.6937 
 195   0.0000       1.946130        52.9569 
 196   0.0000       1.956011        53.2258 
 197   0.0000       1.965531        53.4848 
 198   0.0000       1.983878        53.9841 
 199   0.0000       1.986529        54.0562 
 200   0.0000       1.997028        54.3419 
 201   0.0000       2.001231        54.4563 
 202   0.0000       2.010507        54.7087 
 203   0.0000       2.029882        55.2359 
 204   0.0000       2.034235        55.3543 
 205   0.0000       2.039786        55.5054 
 206   0.0000       2.050150        55.7874 
 207   0.0000       2.053387        55.8755 
 208   0.0000       2.064918        56.1893 
 209   0.0000       2.108695        57.3805 
 210   0.0000       2.123432        57.7815 
 211   0.0000       2.140549        58.2473 
 212   0.0000       2.159473        58.7622 
 213   0.0000       2.161813        58.8259 
 214   0.0000       2.182377        59.3855 
 215   0.0000       2.186174        59.4888 
 216   0.0000       2.204608        59.9904 
 217   0.0000       2.217813        60.3498 
 218   0.0000       2.244073        61.0643 
 219   0.0000       2.247217        61.1499 
 220   0.0000       2.269997        61.7698 
 221   0.0000       2.292324        62.3773 
 222   0.0000       2.297424        62.5161 
 223   0.0000       2.335842        63.5615 
 224   0.0000       2.354134        64.0593 
 225   0.0000       2.358643        64.1819 
 226   0.0000       2.366526        64.3964 
 227   0.0000       2.388857        65.0041 
 228   0.0000       2.398858        65.2762 
 229   0.0000       2.404863        65.4396 
 230   0.0000       2.418229        65.8034 
 231   0.0000       2.465768        67.0970 
 232   0.0000       2.503973        68.1366 
 233   0.0000       2.531961        68.8982 
 234   0.0000       2.548102        69.3374 
 235   0.0000       2.588881        70.4470 
 236   0.0000       2.597059        70.6696 
 237   0.0000       2.597764        70.6887 
 238   0.0000       2.607196        70.9454 
 239   0.0000       2.609503        71.0082 
 240   0.0000       2.657237        72.3071 
 241   0.0000       2.688130        73.1477 
 242   0.0000       2.712874        73.8211 
 243   0.0000       2.739886        74.5561 
 244   0.0000       2.755692        74.9862 
 245   0.0000       2.764788        75.2337 
 246   0.0000       2.814121        76.5761 
 247   0.0000       2.840667        77.2985 
 248   0.0000       2.854970        77.6877 
 249   0.0000       2.859104        77.8002 
 250   0.0000       2.861317        77.8604 
 251   0.0000       2.864501        77.9470 
 252   0.0000       2.887110        78.5623 
 253   0.0000       2.932682        79.8023 
 254   0.0000       2.984340        81.2080 
 255   0.0000       3.003679        81.7343 
 256   0.0000       3.038031        82.6690 
 257   0.0000       3.041962        82.7760 
 258   0.0000       3.050832        83.0174 
 259   0.0000       3.056807        83.1799 
 260   0.0000       3.082461        83.8780 
 261   0.0000       3.101848        84.4056 
 262   0.0000       3.142152        85.5023 
 263   0.0000       3.156541        85.8939 
 264   0.0000       3.158191        85.9387 
 265   0.0000       3.191895        86.8559 
 266   0.0000       3.218574        87.5819 
 267   0.0000       3.227756        87.8317 
 268   0.0000       3.262668        88.7817 
 269   0.0000       3.265779        88.8664 
 270   0.0000       3.286910        89.4414 
 271   0.0000       3.330308        90.6223 
 272   0.0000       3.365034        91.5672 
 273   0.0000       3.402475        92.5860 
 274   0.0000       3.482245        94.7567 
 275   0.0000       3.602719        98.0350 
 276   0.0000       3.623435        98.5987 
 277   0.0000       3.699705       100.6741 
 278   0.0000       3.964052       107.8673 
 279   0.0000       3.987594       108.5080 

                 SPIN DOWN ORBITALS
  NO   OCC          E(Eh)            E(eV) 
   0   1.0000     -24.804790      -674.9727 
   1   1.0000     -19.253295      -523.9088 
   2   1.0000     -14.457375      -393.4052 
   3   1.0000     -14.417989      -392.3334 
   4   1.0000     -10.377194      -282.3778 
   5   1.0000     -10.336731      -281.2768 
   6   1.0000     -10.325923      -280.9826 
   7   1.0000     -10.319773      -280.8153 
   8   1.0000     -10.319747      -280.8146 
   9   1.0000     -10.314624      -280.6752 
  10   1.0000     -10.314620      -280.6751 
  11   1.0000     -10.304584      -280.4020 
  12   1.0000     -10.298572      -280.2384 
  13   1.0000     -10.290705      -280.0243 
  14   1.0000     -10.289012      -279.9782 
  15   1.0000      -1.322262       -35.9806 
  16   1.0000      -1.150596       -31.3093 
  17   1.0000      -1.077304       -29.3149 
  18   1.0000      -1.018765       -27.7220 
  19   1.0000      -0.971273       -26.4297 
  20   1.0000      -0.882790       -24.0219 
  21   1.0000      -0.882756       -24.0210 
  22   1.0000      -0.862756       -23.4768 
  23   1.0000      -0.794235       -21.6122 
  24   1.0000      -0.761830       -20.7305 
  25   1.0000      -0.757832       -20.6217 
  26   1.0000      -0.729483       -19.8502 
  27   1.0000      -0.709608       -19.3094 
  28   1.0000      -0.695098       -18.9146 
  29   1.0000      -0.659178       -17.9371 
  30   1.0000      -0.631250       -17.1772 
  31   1.0000      -0.614473       -16.7207 
  32   1.0000      -0.584154       -15.8956 
  33   1.0000      -0.578949       -15.7540 
  34   1.0000      -0.578205       -15.7337 
  35   1.0000      -0.577306       -15.7093 
  36   1.0000      -0.567703       -15.4480 
  37   1.0000      -0.558895       -15.2083 
  38   1.0000      -0.546372       -14.8675 
  39   1.0000      -0.540266       -14.7014 
  40   1.0000      -0.520693       -14.1688 
  41   1.0000      -0.498449       -13.5635 
  42   1.0000      -0.498137       -13.5550 
  43   1.0000      -0.484463       -13.1829 
  44   1.0000      -0.478953       -13.0330 
  45   1.0000      -0.460945       -12.5429 
  46   1.0000      -0.458783       -12.4841 
  47   1.0000      -0.458752       -12.4833 
  48   1.0000      -0.448044       -12.1919 
  49   1.0000      -0.445125       -12.1125 
  50   1.0000      -0.442209       -12.0331 
  51   1.0000      -0.347292        -9.4503 
  52   1.0000      -0.343997        -9.3606 
  53   1.0000      -0.334499        -9.1022 
  54   1.0000      -0.315285        -8.5793 
  55   0.0000       0.006686         0.1819 
  56   0.0000       0.075807         2.0628 
  57   0.0000       0.134357         3.6560 
  58   0.0000       0.137240         3.7345 
  59   0.0000       0.156060         4.2466 
  60   0.0000       0.158618         4.3162 
  61   0.0000       0.173422         4.7191 
  62   0.0000       0.176258         4.7962 
  63   0.0000       0.192802         5.2464 
  64   0.0000       0.207161         5.6371 
  65   0.0000       0.213464         5.8086 
  66   0.0000       0.219750         5.9797 
  67   0.0000       0.221433         6.0255 
  68   0.0000       0.224071         6.0973 
  69   0.0000       0.234069         6.3693 
  70   0.0000       0.241982         6.5847 
  71   0.0000       0.247919         6.7462 
  72   0.0000       0.260848         7.0980 
  73   0.0000       0.261146         7.1061 
  74   0.0000       0.268172         7.2973 
  75   0.0000       0.295730         8.0472 
  76   0.0000       0.314202         8.5499 
  77   0.0000       0.327240         8.9047 
  78   0.0000       0.337210         9.1759 
  79   0.0000       0.341079         9.2812 
  80   0.0000       0.356803         9.7091 
  81   0.0000       0.363494         9.8912 
  82   0.0000       0.386000        10.5036 
  83   0.0000       0.404039        10.9945 
  84   0.0000       0.415240        11.2993 
  85   0.0000       0.428795        11.6681 
  86   0.0000       0.436804        11.8860 
  87   0.0000       0.463074        12.6009 
  88   0.0000       0.476038        12.9537 
  89   0.0000       0.508367        13.8334 
  90   0.0000       0.519510        14.1366 
  91   0.0000       0.532037        14.4774 
  92   0.0000       0.543019        14.7763 
  93   0.0000       0.549752        14.9595 
  94   0.0000       0.551690        15.0123 
  95   0.0000       0.560625        15.2554 
  96   0.0000       0.569504        15.4970 
  97   0.0000       0.575525        15.6608 
  98   0.0000       0.583284        15.8720 
  99   0.0000       0.596423        16.2295 
 100   0.0000       0.606489        16.5034 
 101   0.0000       0.616373        16.7724 
 102   0.0000       0.617672        16.8077 
 103   0.0000       0.656330        17.8596 
 104   0.0000       0.657448        17.8901 
 105   0.0000       0.681624        18.5479 
 106   0.0000       0.691295        18.8111 
 107   0.0000       0.696786        18.9605 
 108   0.0000       0.709810        19.3149 
 109   0.0000       0.711813        19.3694 
 110   0.0000       0.720363        19.6021 
 111   0.0000       0.726706        19.7747 
 112   0.0000       0.738948        20.1078 
 113   0.0000       0.749406        20.3924 
 114   0.0000       0.753408        20.5013 
 115   0.0000       0.754454        20.5297 
 116   0.0000       0.759313        20.6620 
 117   0.0000       0.767107        20.8740 
 118   0.0000       0.770247        20.9595 
 119   0.0000       0.775531        21.1033 
 120   0.0000       0.782848        21.3024 
 121   0.0000       0.785187        21.3660 
 122   0.0000       0.789856        21.4931 
 123   0.0000       0.792810        21.5735 
 124   0.0000       0.811624        22.0854 
 125   0.0000       0.816434        22.2163 
 126   0.0000       0.834984        22.7211 
 127   0.0000       0.838215        22.8090 
 128   0.0000       0.845100        22.9963 
 129   0.0000       0.849138        23.1062 
 130   0.0000       0.854961        23.2647 
 131   0.0000       0.868854        23.6427 
 132   0.0000       0.896390        24.3920 
 133   0.0000       0.903749        24.5923 
 134   0.0000       0.908176        24.7127 
 135   0.0000       0.943517        25.6744 
 136   0.0000       0.953371        25.9425 
 137   0.0000       0.991782        26.9878 
 138   0.0000       1.013212        27.5709 
 139   0.0000       1.029568        28.0160 
 140   0.0000       1.051255        28.6061 
 141   0.0000       1.102187        29.9920 
 142   0.0000       1.119961        30.4757 
 143   0.0000       1.128005        30.6946 
 144   0.0000       1.165319        31.7100 
 145   0.0000       1.185106        32.2484 
 146   0.0000       1.190147        32.3855 
 147   0.0000       1.230343        33.4793 
 148   0.0000       1.237853        33.6837 
 149   0.0000       1.246447        33.9176 
 150   0.0000       1.272660        34.6308 
 151   0.0000       1.290355        35.1123 
 152   0.0000       1.292350        35.1666 
 153   0.0000       1.320489        35.9323 
 154   0.0000       1.327426        36.1211 
 155   0.0000       1.334002        36.3000 
 156   0.0000       1.339146        36.4400 
 157   0.0000       1.366452        37.1831 
 158   0.0000       1.384393        37.6712 
 159   0.0000       1.394012        37.9330 
 160   0.0000       1.404622        38.2217 
 161   0.0000       1.404708        38.2240 
 162   0.0000       1.430101        38.9150 
 163   0.0000       1.444386        39.3037 
 164   0.0000       1.463750        39.8307 
 165   0.0000       1.476127        40.1674 
 166   0.0000       1.492181        40.6043 
 167   0.0000       1.515166        41.2298 
 168   0.0000       1.583019        43.0761 
 169   0.0000       1.586694        43.1761 
 170   0.0000       1.603032        43.6207 
 171   0.0000       1.616613        43.9903 
 172   0.0000       1.632603        44.4254 
 173   0.0000       1.663032        45.2534 
 174   0.0000       1.693067        46.0707 
 175   0.0000       1.702774        46.3348 
 176   0.0000       1.730855        47.0989 
 177   0.0000       1.733970        47.1837 
 178   0.0000       1.784004        48.5452 
 179   0.0000       1.791303        48.7438 
 180   0.0000       1.796697        48.8906 
 181   0.0000       1.804166        49.0939 
 182   0.0000       1.816497        49.4294 
 183   0.0000       1.833151        49.8826 
 184   0.0000       1.840119        50.0722 
 185   0.0000       1.853835        50.4454 
 186   0.0000       1.863396        50.7056 
 187   0.0000       1.869305        50.8664 
 188   0.0000       1.882825        51.2343 
 189   0.0000       1.883576        51.2547 
 190   0.0000       1.889384        51.4128 
 191   0.0000       1.905858        51.8610 
 192   0.0000       1.920887        52.2700 
 193   0.0000       1.925549        52.3968 
 194   0.0000       1.937811        52.7305 
 195   0.0000       1.946545        52.9682 
 196   0.0000       1.957644        53.2702 
 197   0.0000       1.970080        53.6086 
 198   0.0000       1.984390        53.9980 
 199   0.0000       1.987587        54.0850 
 200   0.0000       1.999205        54.4011 
 201   0.0000       2.001551        54.4650 
 202   0.0000       2.011646        54.7397 
 203   0.0000       2.031130        55.2699 
 204   0.0000       2.035739        55.3953 
 205   0.0000       2.049155        55.7604 
 206   0.0000       2.052196        55.8431 
 207   0.0000       2.056362        55.9565 
 208   0.0000       2.065611        56.2081 
 209   0.0000       2.110233        57.4224 
 210   0.0000       2.127321        57.8874 
 211   0.0000       2.143998        58.3411 
 212   0.0000       2.160861        58.8000 
 213   0.0000       2.164039        58.8865 
 214   0.0000       2.184365        59.4396 
 215   0.0000       2.194881        59.7257 
 216   0.0000       2.216868        60.3240 
 217   0.0000       2.217971        60.3541 
 218   0.0000       2.248333        61.1803 
 219   0.0000       2.248508        61.1850 
 220   0.0000       2.271850        61.8202 
 221   0.0000       2.299233        62.5653 
 222   0.0000       2.299809        62.5810 
 223   0.0000       2.337533        63.6075 
 224   0.0000       2.359981        64.2183 
 225   0.0000       2.364191        64.3329 
 226   0.0000       2.370588        64.5070 
 227   0.0000       2.389285        65.0158 
 228   0.0000       2.403261        65.3961 
 229   0.0000       2.407333        65.5069 
 230   0.0000       2.420986        65.8784 
 231   0.0000       2.475686        67.3668 
 232   0.0000       2.505452        68.1768 
 233   0.0000       2.533056        68.9280 
 234   0.0000       2.549464        69.3744 
 235   0.0000       2.589429        70.4619 
 236   0.0000       2.598422        70.7067 
 237   0.0000       2.599283        70.7301 
 238   0.0000       2.608981        70.9940 
 239   0.0000       2.614148        71.1346 
 240   0.0000       2.660952        72.4082 
 241   0.0000       2.689717        73.1909 
 242   0.0000       2.717664        73.9514 
 243   0.0000       2.742144        74.6175 
 244   0.0000       2.757839        75.0446 
 245   0.0000       2.768077        75.3232 
 246   0.0000       2.814671        76.5911 
 247   0.0000       2.841085        77.3099 
 248   0.0000       2.855378        77.6988 
 249   0.0000       2.859613        77.8140 
 250   0.0000       2.864821        77.9557 
 251   0.0000       2.865095        77.9632 
 252   0.0000       2.888906        78.6111 
 253   0.0000       2.935435        79.8772 
 254   0.0000       2.986041        81.2543 
 255   0.0000       3.009317        81.8877 
 256   0.0000       3.041115        82.7530 
 257   0.0000       3.049377        82.9778 
 258   0.0000       3.052469        83.0619 
 259   0.0000       3.058426        83.2240 
 260   0.0000       3.083105        83.8955 
 261   0.0000       3.116428        84.8023 
 262   0.0000       3.144891        85.5768 
 263   0.0000       3.158365        85.9435 
 264   0.0000       3.158568        85.9490 
 265   0.0000       3.191209        86.8372 
 266   0.0000       3.219603        87.6098 
 267   0.0000       3.227312        87.8196 
 268   0.0000       3.262911        88.7883 
 269   0.0000       3.267092        88.9021 
 270   0.0000       3.287043        89.4450 
 271   0.0000       3.332130        90.6719 
 272   0.0000       3.376286        91.8734 
 273   0.0000       3.400919        92.5437 
 274   0.0000       3.482274        94.7575 
 275   0.0000       3.607247        98.1582 
 276   0.0000       3.624709        98.6333 
 277   0.0000       3.702081       100.7387 
 278   0.0000       3.967118       107.9508 
 279   0.0000       3.987976       108.5183 

                    ********************************
                    * MULLIKEN POPULATION ANALYSIS *
                    ********************************

--------------------------------------------
MULLIKEN ATOMIC CHARGES AND SPIN POPULATIONS
--------------------------------------------
   0 C :    0.023817   -0.159175
   1 C :   -0.042814    0.261622
   2 C :    0.039498   -0.181123
   3 C :    0.038277    0.551637
   4 O :   -0.221986    0.137012
   5 H :    0.024569   -0.025991
   6 C :    0.009802    0.292364
   7 C :    0.263521   -0.160981
   8 C :   -0.108690    0.318443
   9 H :    0.016314   -0.014341
  10 F :   -0.218977   -0.006505
  11 N :   -0.478567   -0.017029
  12 C :    0.101195    0.005374
  13 H :    0.041702   -0.000505
  14 C :    0.078116    0.001579
  15 H :    0.037306    0.000223
  16 N :   -0.304087   -0.000092
  17 H :    0.197764   -0.003796
  18 H :    0.107837   -0.000012
  19 C :    0.077996    0.001570
  20 H :    0.037334    0.000224
  21 C :    0.101241    0.005367
  22 H :    0.041694   -0.000499
  23 H :    0.026665   -0.000088
  24 H :    0.033653    0.000133
  25 H :    0.033609    0.000132
  26 H :    0.026639   -0.000087
  27 H :   -0.001349   -0.011282
  28 H :    0.017919    0.005827
Sum of atomic charges         :   -0.0000000
Sum of atomic spin populations:    1.0000000

-----------------------------------------------------
MULLIKEN REDUCED ORBITAL CHARGES AND SPIN POPULATIONS
-----------------------------------------------------
CHARGE
  0 C s       :     3.128685  s :     3.128685
      pz      :     0.977360  p :     2.809774
      px      :     0.875039
      py      :     0.957375
      dz2     :     0.002584  d :     0.037724
      dxz     :     0.002614
      dyz     :     0.008888
      dx2y2   :     0.012847
      dxy     :     0.010791
  1 C s       :     3.197952  s :     3.197952
      pz      :     1.021595  p :     2.810248
      px      :     0.923703
      py      :     0.864950
      dz2     :     0.002657  d :     0.034613
      dxz     :     0.004912
      dyz     :     0.004386
      dx2y2   :     0.011075
      dxy     :     0.011584
  2 C s       :     3.054686  s :     3.054686
      pz      :     1.023915  p :     2.861777
      px      :     0.903969
      py      :     0.933893
      dz2     :     0.003292  d :     0.044039
      dxz     :     0.006688
      dyz     :     0.010009
      dx2y2   :     0.011274
      dxy     :     0.012776
  3 C s       :     3.161944  s :     3.161944
      pz      :     1.002941  p :     2.731262
      px      :     0.773318
      py      :     0.955003
      dz2     :     0.005165  d :     0.068517
      dxz     :     0.014702
      dyz     :     0.005309
      dx2y2   :     0.020228
      dxy     :     0.023112
  4 O s       :     3.671169  s :     3.671169
      pz      :     1.748639  p :     4.536040
      px      :     1.257142
      py      :     1.530259
      dz2     :     0.002042  d :     0.014777
      dxz     :     0.002629
      dyz     :     0.000934
      dx2y2   :     0.004786
      dxy     :     0.004387
  5 H s       :     0.952650  s :     0.952650
      pz      :     0.005521  p :     0.022781
      px      :     0.006151
      py      :     0.011109
  6 C s       :     3.043673  s :     3.043673
      pz      :     1.108065  p :     2.892429
      px      :     0.834146
      py      :     0.950219
      dz2     :     0.004169  d :     0.054095
      dxz     :     0.007080
      dyz     :     0.006894
      dx2y2   :     0.015802
      dxy     :     0.020150
  7 C s       :     3.049797  s :     3.049797
      pz      :     1.000640  p :     2.604957
      px      :     0.828391
      py      :     0.775926
      dz2     :     0.006005  d :     0.081725
      dxz     :     0.011424
      dyz     :     0.014025
      dx2y2   :     0.023012
      dxy     :     0.027259
  8 C s       :     3.232355  s :     3.232355
      pz      :     1.067806  p :     2.843301
      px      :     0.940092
      py      :     0.835403
      dz2     :     0.002767  d :     0.033034
      dxz     :     0.005940
      dyz     :     0.003397
      dx2y2   :     0.012581
      dxy     :     0.008348
  9 H s       :     0.959997  s :     0.959997
      pz      :     0.005374  p :     0.023689
      px      :     0.005089
      py      :     0.013226
 10 F s       :     3.895218  s :     3.895218
      pz      :     1.902042  p :     5.316044
      px      :     1.793267
      py      :     1.620735
      dz2     :     0.001059  d :     0.007715
      dxz     :     0.000552
      dyz     :     0.001318
      dx2y2   :     0.001886
      dxy     :     0.002900
 11 N s       :     3.505305  s :     3.505305
      pz      :     1.155806  p :     3.944596
      px      :     1.132009
      py      :     1.656781
      dz2     :     0.006711  d :     0.028666
      dxz     :     0.007247
      dyz     :     0.005755
      dx2y2   :     0.005087
      dxy     :     0.003866
 12 C s       :     2.992367  s :     2.992367
      pz      :     0.878022  p :     2.858396
      px      :     0.977705
      py      :     1.002668
      dz2     :     0.010610  d :     0.048042
      dxz     :     0.011188
      dyz     :     0.008240
      dx2y2   :     0.011942
      dxy     :     0.006062
 13 H s       :     0.937016  s :     0.937016
      pz      :     0.009812  p :     0.021283
      px      :     0.005886
      py      :     0.005584
 14 C s       :     2.996066  s :     2.996066
      pz      :     0.918276  p :     2.874707
      px      :     0.923792
      py      :     1.032639
      dz2     :     0.011835  d :     0.051111
      dxz     :     0.013012
      dyz     :     0.007109
      dx2y2   :     0.013327
      dxy     :     0.005828
 15 H s       :     0.941384  s :     0.941384
      pz      :     0.009776  p :     0.021310
      px      :     0.006120
      py      :     0.005413
 16 N s       :     3.452715  s :     3.452715
      pz      :     1.069550  p :     3.826131
      px      :     1.616005
      py      :     1.140576
      dz2     :     0.006068  d :     0.025241
      dxz     :     0.008127
      dyz     :     0.003041
      dx2y2   :     0.006224
      dxy     :     0.001782
 17 H s       :     0.725201  s :     0.725201
      pz      :     0.014582  p :     0.077035
      px      :     0.018806
      py      :     0.043647
 18 H s       :     0.848550  s :     0.848550
      pz      :     0.007342  p :     0.043613
      px      :     0.013370
      py      :     0.022900
 19 C s       :     2.996214  s :     2.996214
      pz      :     0.918312  p :     2.874676
      px      :     0.923861
      py      :     1.032503
      dz2     :     0.011837  d :     0.051114
      dxz     :     0.013028
      dyz     :     0.007099
      dx2y2   :     0.013318
      dxy     :     0.005832
 20 H s       :     0.941358  s :     0.941358
      pz      :     0.009779  p :     0.021307
      px      :     0.006130
      py      :     0.005398
 21 C s       :     2.992469  s :     2.992469
      pz      :     0.878241  p :     2.858259
      px      :     0.977398
      py      :     1.002621
      dz2     :     0.010599  d :     0.048030
      dxz     :     0.011196
      dyz     :     0.008218
      dx2y2   :     0.011946
      dxy     :     0.006071
 22 H s       :     0.937019  s :     0.937019
      pz      :     0.009829  p :     0.021287
      px      :     0.005885
      py      :     0.005573
 23 H s       :     0.951658  s :     0.951658
      pz      :     0.003094  p :     0.021677
      px      :     0.003616
      py      :     0.014968
 24 H s       :     0.944850  s :     0.944850
      pz      :     0.003159  p :     0.021497
      px      :     0.003708
      py      :     0.014629
 25 H s       :     0.944893  s :     0.944893
      pz      :     0.003161  p :     0.021498
      px      :     0.003710
      py      :     0.014628
 26 H s       :     0.951688  s :     0.951688
      pz      :     0.003093  p :     0.021673
      px      :     0.003617
      py      :     0.014963
 27 H s       :     0.977695  s :     0.977695
      pz      :     0.005143  p :     0.023655
      px      :     0.007181
      py      :     0.011331
 28 H s       :     0.958656  s :     0.958656
      pz      :     0.004610  p :     0.023425
      px      :     0.015344
      py      :     0.003471

SPIN
  0 C s       :    -0.024859  s :    -0.024859
      pz      :    -0.111094  p :    -0.138759
      px      :    -0.009989
      py      :    -0.017676
      dz2     :     0.000252  d :     0.004443
      dxz     :     0.000209
      dyz     :     0.003829
      dx2y2   :     0.000075
      dxy     :     0.000078
  1 C s       :     0.036260  s :     0.036260
      pz      :     0.206144  p :     0.227216
      px      :     0.010886
      py      :     0.010186
      dz2     :    -0.000538  d :    -0.001854
      dxz     :    -0.000822
      dyz     :    -0.000295
      dx2y2   :    -0.000085
      dxy     :    -0.000115
  2 C s       :    -0.026824  s :    -0.026824
      pz      :    -0.114320  p :    -0.163397
      px      :    -0.021304
      py      :    -0.027773
      dz2     :     0.000203  d :     0.009097
      dxz     :     0.001587
      dyz     :     0.007090
      dx2y2   :     0.000094
      dxy     :     0.000123
  3 C s       :     0.043448  s :     0.043448
      pz      :     0.482066  p :     0.508245
      px      :     0.011369
      py      :     0.014811
      dz2     :    -0.001415  d :    -0.000056
      dxz     :     0.001304
      dyz     :     0.000215
      dx2y2   :    -0.000208
      dxy     :     0.000047
  4 O s       :     0.003756  s :     0.003756
      pz      :     0.140889  p :     0.132918
      px      :    -0.009046
      py      :     0.001075
      dz2     :    -0.000041  d :     0.000338
      dxz     :     0.000449
      dyz     :    -0.000063
      dx2y2   :    -0.000020
      dxy     :     0.000014
  5 H s       :    -0.030025  s :    -0.030025
      pz      :     0.003811  p :     0.004034
      px      :     0.000097
      py      :     0.000126
  6 C s       :     0.034258  s :     0.034258
      pz      :     0.231127  p :     0.260238
      px      :     0.015699
      py      :     0.013411
      dz2     :    -0.000627  d :    -0.002132
[...]
      px      :     1.002999
      py      :     0.883975
      dz2     :     0.013513  d :     0.191947
      dxz     :     0.023198
      dyz     :     0.028182
      dx2y2   :     0.059739
      dxy     :     0.067316
  8 C s       :     2.859789  s :     2.859789
      pz      :     1.045507  p :     3.139833
      px      :     1.045099
      py      :     1.049226
      dz2     :     0.006621  d :     0.085888
      dxz     :     0.012132
      dyz     :     0.005872
      dx2y2   :     0.035664
      dxy     :     0.025599
  9 H s       :     0.890461  s :     0.890461
      pz      :     0.016893  p :     0.070098
      px      :     0.015368
      py      :     0.037837
 10 F s       :     3.718297  s :     3.718297
      pz      :     1.894093  p :     5.336763
      px      :     1.787378
      py      :     1.655292
      dz2     :     0.001798  d :     0.012559
      dxz     :     0.000954
      dyz     :     0.001896
      dx2y2   :     0.002922
      dxy     :     0.004988
 11 N s       :     3.109695  s :     3.109695
      pz      :     1.167983  p :     3.924285
      px      :     1.154739
      py      :     1.601562
      dz2     :     0.015006  d :     0.061105
      dxz     :     0.017979
      dyz     :     0.009874
      dx2y2   :     0.011495
      dxy     :     0.006750
 12 C s       :     2.846065  s :     2.846065
      pz      :     0.941374  p :     3.023926
      px      :     1.025208
      py      :     1.057344
      dz2     :     0.025527  d :     0.115904
      dxz     :     0.025922
      dyz     :     0.021110
      dx2y2   :     0.030227
      dxy     :     0.013118
 13 H s       :     0.904718  s :     0.904718
      pz      :     0.028701  p :     0.065064
      px      :     0.019148
      py      :     0.017215
 14 C s       :     2.834683  s :     2.834683
      pz      :     0.969073  p :     3.036565
      px      :     1.008170
      py      :     1.059323
      dz2     :     0.027804  d :     0.120051
      dxz     :     0.029944
      dyz     :     0.015311
      dx2y2   :     0.035070
      dxy     :     0.011921
 15 H s       :     0.907076  s :     0.907076
      pz      :     0.029348  p :     0.063498
      px      :     0.018007
      py      :     0.016144
 16 N s       :     3.123172  s :     3.123172
      pz      :     1.127920  p :     3.939241
      px      :     1.590217
      py      :     1.221105
      dz2     :     0.014791  d :     0.053616
      dxz     :     0.016108
      dyz     :     0.008069
      dx2y2   :     0.012289
      dxy     :     0.002359
 17 H s       :     0.727335  s :     0.727335
      pz      :     0.040814  p :     0.229154
      px      :     0.042476
      py      :     0.145863
 18 H s       :     0.817923  s :     0.817923
      pz      :     0.019044  p :     0.124406
      px      :     0.040406
      py      :     0.064957
 19 C s       :     2.834682  s :     2.834682
      pz      :     0.969036  p :     3.036567
      px      :     1.008182
      py      :     1.059349
      dz2     :     0.027806  d :     0.120051
      dxz     :     0.029945
      dyz     :     0.015314
      dx2y2   :     0.035066
      dxy     :     0.011920
 20 H s       :     0.907077  s :     0.907077
      pz      :     0.029340  p :     0.063498
      px      :     0.018007
      py      :     0.016150
 21 C s       :     2.846066  s :     2.846066
      pz      :     0.941407  p :     3.023949
      px      :     1.025205
      py      :     1.057337
      dz2     :     0.025529  d :     0.115906
      dxz     :     0.025922
      dyz     :     0.021103
      dx2y2   :     0.030232
      dxy     :     0.013119
 22 H s       :     0.904723  s :     0.904723
      pz      :     0.028708  p :     0.065064
      px      :     0.019147
      py      :     0.017210
 23 H s       :     0.923486  s :     0.923486
      pz      :     0.010831  p :     0.067031
      px      :     0.013274
      py      :     0.042927
 24 H s       :     0.911039  s :     0.911039
      pz      :     0.010585  p :     0.063489
      px      :     0.011798
      py      :     0.041106
 25 H s       :     0.911032  s :     0.911032
      pz      :     0.010585  p :     0.063489
      px      :     0.011797
      py      :     0.041108
 26 H s       :     0.923489  s :     0.923489
      pz      :     0.010833  p :     0.067023
      px      :     0.013271
      py      :     0.042919
 27 H s       :     0.900445  s :     0.900445
      pz      :     0.015553  p :     0.068078
      px      :     0.021481
      py      :     0.031044
 28 H s       :     0.897556  s :     0.897556
      pz      :     0.013653  p :     0.066504
      px      :     0.041815
      py      :     0.011036

SPIN
  0 C s       :    -0.005080  s :    -0.005080
      pz      :    -0.089385  p :    -0.099512
      px      :    -0.003576
      py      :    -0.006550
      dz2     :     0.000328  d :     0.009598
      dxz     :     0.000533
      dyz     :     0.007805
      dx2y2   :     0.000420
      dxy     :     0.000512
  1 C s       :     0.006868  s :     0.006868
      pz      :     0.173610  p :     0.183650
      px      :     0.005525
      py      :     0.004515
      dz2     :    -0.000563  d :    -0.004207
      dxz     :    -0.001681
      dyz     :    -0.000882
      dx2y2   :    -0.000476
      dxy     :    -0.000605
  2 C s       :    -0.007098  s :    -0.007098
      pz      :    -0.085838  p :    -0.103786
      px      :    -0.007398
      py      :    -0.010550
      dz2     :     0.000358  d :     0.019637
      dxz     :     0.003345
      dyz     :     0.014330
      dx2y2   :     0.000784
      dxy     :     0.000819
  3 C s       :     0.016480  s :     0.016480
      pz      :     0.461200  p :     0.476736
      px      :     0.005667
      py      :     0.009869
      dz2     :    -0.001288  d :     0.001211
      dxz     :     0.003912
      dyz     :    -0.000172
      dx2y2   :    -0.000631
      dxy     :    -0.000610
  4 O s       :     0.003792  s :     0.003792
      pz      :     0.152336  p :     0.148803
      px      :    -0.004761
      py      :     0.001228
      dz2     :     0.000079  d :     0.002431
      dxz     :     0.002185
      dyz     :     0.000030
      dx2y2   :     0.000077
      dxy     :     0.000060
  5 H s       :    -0.015997  s :    -0.015997
      pz      :     0.012237  p :     0.014504
      px      :     0.000762
      py      :     0.001505
  6 C s       :     0.008217  s :     0.008217
      pz      :     0.198067  p :     0.210067
      px      :     0.005514
      py      :     0.006486
      dz2     :    -0.000692  d :    -0.004941
      dxz     :    -0.000674
      dyz     :    -0.002486
      dx2y2   :    -0.000590
      dxy     :    -0.000499
  7 C s       :    -0.005938  s :    -0.005938
      pz      :    -0.092314  p :    -0.101111
      px      :    -0.005115
      py      :    -0.003683
      dz2     :     0.000294  d :     0.011045
      dxz     :     0.006155
      dyz     :     0.003631
      dx2y2   :     0.000514
      dxy     :     0.000451
  8 C s       :     0.008123  s :     0.008123
      pz      :     0.215823  p :     0.227699
      px      :     0.006347
      py      :     0.005529
      dz2     :    -0.000675  d :    -0.004499
      dxz     :    -0.002129
      dyz     :    -0.000796
      dx2y2   :    -0.000502
      dxy     :    -0.000397
  9 H s       :    -0.007395  s :    -0.007395
      pz      :     0.006031  p :     0.007170
      px      :     0.000261
      py      :     0.000879
 10 F s       :    -0.000284  s :    -0.000284
      pz      :    -0.010973  p :    -0.009422
      px      :     0.000359
      py      :     0.001191
      dz2     :    -0.000012  d :    -0.000345
      dxz     :    -0.000090
      dyz     :    -0.000184
      dx2y2   :    -0.000026
      dxy     :    -0.000032
 11 N s       :    -0.001213  s :    -0.001213
      pz      :    -0.000527  p :    -0.007117
      px      :    -0.005297
      py      :    -0.001293
      dz2     :     0.000076  d :     0.003061
      dxz     :     0.002706
      dyz     :     0.000073
      dx2y2   :     0.000144
      dxy     :     0.000063
 12 C s       :     0.002032  s :     0.002032
      pz      :     0.002214  p :     0.005156
      px      :     0.002069
      py      :     0.000873
      dz2     :     0.000016  d :     0.000071
      dxz     :    -0.000036
      dyz     :    -0.000008
      dx2y2   :     0.000090
      dxy     :     0.000009
 13 H s       :    -0.000013  s :    -0.000013
      pz      :     0.000138  p :     0.000136
      px      :    -0.000004
      py      :     0.000001
 14 C s       :     0.000200  s :     0.000200
      pz      :     0.000026  p :     0.000944
      px      :     0.000768
      py      :     0.000150
      dz2     :    -0.000001  d :     0.000060
      dxz     :     0.000031
      dyz     :     0.000002
      dx2y2   :     0.000014
      dxy     :     0.000014
 15 H s       :     0.000186  s :     0.000186
      pz      :     0.000001  p :     0.000059
      px      :     0.000047
      py      :     0.000010
 16 N s       :    -0.000027  s :    -0.000027
      pz      :    -0.000037  p :    -0.000043
      px      :     0.000007
      py      :    -0.000013
      dz2     :    -0.000001  d :     0.000028
      dxz     :     0.000026
      dyz     :     0.000003
      dx2y2   :    -0.000001
      dxy     :     0.000000
 17 H s       :    -0.003215  s :    -0.003215
      pz      :     0.004589  p :     0.005001
      px      :    -0.000157
      py      :     0.000570
 18 H s       :    -0.000006  s :    -0.000006
      pz      :     0.000000  p :    -0.000000
      px      :     0.000001
      py      :    -0.000001
 19 C s       :     0.000200  s :     0.000200
      pz      :     0.000026  p :     0.000945
      px      :     0.000769
      py      :     0.000150
      dz2     :    -0.000001  d :     0.000060
      dxz     :     0.000031
      dyz     :     0.000002
      dx2y2   :     0.000014
      dxy     :     0.000014
 20 H s       :     0.000186  s :     0.000186
      pz      :     0.000001  p :     0.000059
      px      :     0.000047
      py      :     0.000010
 21 C s       :     0.002030  s :     0.002030
      pz      :     0.002210  p :     0.005153
      px      :     0.002069
      py      :     0.000874
      dz2     :     0.000016  d :     0.000071
      dxz     :    -0.000036
      dyz     :    -0.000008
      dx2y2   :     0.000090
      dxy     :     0.000009
 22 H s       :    -0.000012  s :    -0.000012
      pz      :     0.000138  p :     0.000136
      px      :    -0.000004
      py      :     0.000001
 23 H s       :    -0.000179  s :    -0.000179
      pz      :     0.000050  p :     0.000145
      px      :     0.000034
      py      :     0.000062
 24 H s       :     0.000061  s :     0.000061
      pz      :     0.000000  p :     0.000027
      px      :     0.000019
      py      :     0.000007
 25 H s       :     0.000062  s :     0.000062
      pz      :     0.000000  p :     0.000027
      px      :     0.000019
      py      :     0.000007
 26 H s       :    -0.000178  s :    -0.000178
      pz      :     0.000050  p :     0.000146
      px      :     0.000034
      py      :     0.000062
 27 H s       :    -0.006249  s :    -0.006249
      pz      :     0.004364  p :     0.005287
      px      :     0.000360
      py      :     0.000563
 28 H s       :     0.003131  s :     0.003131
      pz      :    -0.002212  p :    -0.002825
      px      :    -0.000429
      py      :    -0.000183


                      *****************************
                      * MAYER POPULATION ANALYSIS *
                      *****************************

  NA   - Mulliken gross atomic population
  ZA   - Total nuclear charge
  QA   - Mulliken gross atomic charge
  VA   - Mayer's total valence
  BVA  - Mayer's bonded valence
  FA   - Mayer's free valence

  ATOM       NA         ZA         QA         VA         BVA        FA
  0 C      5.9877     6.0000     0.0123     3.8227     3.8102     0.0125
  1 C      6.0522     6.0000    -0.0522     3.8572     3.8171     0.0401
  2 C      5.9707     6.0000     0.0293     3.8217     3.8071     0.0146
  3 C      5.9626     6.0000     0.0374     3.9893     3.7316     0.2577
  4 O      8.2134     8.0000    -0.2134     2.3063     2.2817     0.0246
  5 H      0.9691     1.0000     0.0309     1.0017     1.0007     0.0010
  6 C      5.9988     6.0000     0.0012     3.8425     3.7880     0.0544
  7 C      5.7358     6.0000     0.2642     3.8973     3.8841     0.0132
  8 C      6.1171     6.0000    -0.1171     3.8192     3.7587     0.0604
  9 H      0.9763     1.0000     0.0237     0.9971     0.9969     0.0003
 10 F      9.2060     9.0000    -0.2060     1.1623     1.1622     0.0001
 11 N      7.4829     7.0000    -0.4829     3.0183     3.0181     0.0002
 12 C      5.9033     6.0000     0.0967     3.9028     3.9028     0.0000
 13 H      0.9566     1.0000     0.0434     0.9885     0.9885     0.0000
 14 C      5.9277     6.0000     0.0723     4.0751     4.0751     0.0000
 15 H      0.9597     1.0000     0.0403     0.9852     0.9852     0.0000
 16 N      7.3046     7.0000    -0.3046     3.1017     3.1017     0.0000
 17 H      0.8038     1.0000     0.1962     1.0768     1.0768     0.0000
 18 H      0.8878     1.0000     0.1122     0.9918     0.9918     0.0000
 19 C      5.9276     6.0000     0.0724     4.0751     4.0751     0.0000
 20 H      0.9597     1.0000     0.0403     0.9852     0.9852     0.0000
 21 C      5.9034     6.0000     0.0966     3.9029     3.9028     0.0000
 22 H      0.9566     1.0000     0.0434     0.9885     0.9885     0.0000
 23 H      0.9711     1.0000     0.0289     1.0075     1.0075     0.0000
 24 H      0.9637     1.0000     0.0363     0.9923     0.9923     0.0000
 25 H      0.9636     1.0000     0.0364     0.9923     0.9923     0.0000
 26 H      0.9712     1.0000     0.0288     1.0074     1.0074     0.0000
 27 H      0.9926     1.0000     0.0074     0.9917     0.9915     0.0002
 28 H      0.9744     1.0000     0.0256     0.9849     0.9848     0.0000

  Mayer bond orders larger than 0.100000
B(  0-C ,  1-C ) :   1.4743 B(  0-C ,  8-C ) :   1.2858 B(  0-C , 28-H ) :   0.9874 
B(  1-C ,  2-C ) :   1.2214 B(  1-C , 27-H ) :   0.9915 B(  2-C ,  3-C ) :   1.2771 
B(  2-C ,  6-C ) :   1.2528 B(  3-C ,  4-O ) :   1.3359 B(  3-C ,  5-H ) :   0.9847 
B(  4-O , 17-H ) :   0.8671 B(  6-C ,  7-C ) :   1.3812 B(  6-C , 11-N ) :   0.9748 
B(  7-C ,  8-C ) :   1.3561 B(  7-C , 10-F ) :   1.0608 B(  8-C ,  9-H ) :   0.9912 
B( 11-N , 12-C ) :   0.9227 B( 11-N , 17-H ) :   0.1608 B( 11-N , 21-C ) :   0.9227 
B( 12-C , 13-H ) :   0.9478 B( 12-C , 14-C ) :   1.0572 B( 12-C , 26-H ) :   0.9376 
B( 14-C , 15-H ) :   0.9603 B( 14-C , 16-N ) :   1.0590 B( 14-C , 25-H ) :   0.9462 
B( 16-N , 18-H ) :   0.9503 B( 16-N , 19-C ) :   1.0590 B( 19-C , 20-H ) :   0.9603 
B( 19-C , 21-C ) :   1.0572 B( 19-C , 24-H ) :   0.9462 B( 21-C , 22-H ) :   0.9478 
B( 21-C , 23-H ) :   0.9376 

-------
TIMINGS
-------

Total SCF time: 0 days 0 hours 3 min 17 sec 

Total time                  ....     197.474 sec
Sum of individual times     ....     197.157 sec  ( 99.8%)

Fock matrix formation       ....     193.646 sec  ( 98.1%)
  XC integration            ....      11.420 sec  (  5.9% of F)
    Basis function eval.    ....       2.512 sec  ( 22.0% of XC)
    Density eval.           ....       3.169 sec  ( 27.7% of XC)
    XC-Functional eval.     ....       1.842 sec  ( 16.1% of XC)
    XC-Potential eval.      ....       3.646 sec  ( 31.9% of XC)
Diagonalization             ....       0.230 sec  (  0.1%)
Density matrix formation    ....       0.025 sec  (  0.0%)
Population analysis         ....       0.033 sec  (  0.0%)
Initial guess               ....       0.022 sec  (  0.0%)
Orbital Transformation      ....       0.000 sec  (  0.0%)
Orbital Orthonormalization  ....       0.016 sec  (  0.0%)
DIIS solution               ....       0.070 sec  (  0.0%)
Grid generation             ....       3.130 sec  (  1.6%)


-------------------------------------------------------------------------------
                          DFT DISPERSION CORRECTION                            
                                                                               
                              DFTD3 V3.1  Rev 1                                
                              USING zero damping                               
-------------------------------------------------------------------------------
The omegaB97X-D3 functional is recognized. Fit by Chai et al.
Active option DFTDOPT                   ...         3   

molecular C6(AA) [au] = 8135.571168 


            DFT-D V3
 parameters
 s6 scaling factor         :     1.0000 
 rs6 scaling factor        :     1.2810 
 s8 scaling factor         :     1.0000 
 rs8 scaling factor        :     1.0940 
 Damping factor alpha6     :    14.0000 
 Damping factor alpha8     :    16.0000 
 ad hoc parameters k1-k3   :    16.0000     1.3333    -4.0000 

 Edisp/kcal,au: -8.424239855733  -0.013424879313 
 E6   /kcal   :  -3.769503623 
 E8   /kcal   :  -4.654736232 
 % E8         :  55.254080037 

-------------------------   ----------------
Dispersion correction           -0.013424879
-------------------------   ----------------


-------------------------   --------------------
FINAL SINGLE POINT ENERGY      -711.417678421123
-------------------------   --------------------

                                *** OPTIMIZATION RUN DONE ***

                            ***************************************
                            *     ORCA property calculations      *
                            ***************************************

                                    ---------------------
                                    Active property flags
                                    ---------------------
   (+) Dipole Moment


------------------------------------------------------------------------------
                       ORCA ELECTRIC PROPERTIES CALCULATION
------------------------------------------------------------------------------

Dipole Moment Calculation                       ... on
Quadrupole Moment Calculation                   ... off
Polarizability Calculation                      ... off
GBWName                                         ... 026188732.gbw
Electron density file                           ... 026188732.scfp
The origin for moment calculation is the CENTER OF MASS  = (-0.006550, -0.003956  0.000529)

-------------
DIPOLE MOMENT
-------------
                                X             Y             Z
Electronic contribution:      8.60872       3.71139      -0.00280
Nuclear contribution   :     -8.42167      -3.18210       0.00298
                        -----------------------------------------
Total Dipole Moment    :      0.18705       0.52929       0.00018
                        -----------------------------------------
Magnitude (a.u.)       :      0.56137
Magnitude (Debye)      :      1.42688



--------------------
Rotational spectrum 
--------------------
 
Rotational constants in cm-1:     0.033444     0.016197     0.012441 
Rotational constants in MHz :  1002.624356   485.573750   372.970519 

 Dipole components along the rotational axes: 
x,y,z [a.u.] :     0.180210     0.531656     0.000410 
x,y,z [Debye]:     0.458056     1.351363     0.001041 

 

Timings for individual modules:

Sum of individual times         ...     3992.354 sec (=  66.539 min)
GTO integral calculation        ...        3.276 sec (=   0.055 min)   0.1 %
SCF iterations                  ...     2859.749 sec (=  47.662 min)  71.6 %
SCF Gradient evaluation         ...     1127.527 sec (=  18.792 min)  28.2 %
Geometry relaxation             ...        1.802 sec (=   0.030 min)   0.0 %
                             ****ORCA TERMINATED NORMALLY****
TOTAL RUN TIME: 0 days 1 hours 6 minutes 35 seconds 646 msec
