
                                 *****************
                                 * O   R   C   A *
                                 *****************

           --- An Ab Initio, DFT and Semiempirical electronic structure package ---

                  #######################################################
                  #                        -***-                        #
                  #          Department of theory and spectroscopy      #
                  #               Directorship: Frank Neese             #
                  #        Max Planck Institute fuer Kohlenforschung    #
                  #                Kaiser Wilhelm Platz 1               #
                  #                 D-45470 Muelheim/Ruhr               #
                  #                      Germany                        #
                  #                                                     #
                  #                  All rights reserved                #
                  #                        -***-                        #
                  #######################################################


                         Program Version 4.2.0 -  RELEASE  -


 With contributions from (in alphabetic order):
   Daniel Aravena         : Magnetic Suceptibility
   Michael Atanasov       : Ab Initio Ligand Field Theory (pilot matlab implementation)
   Alexander A. Auer      : GIAO ZORA, VPT2
   Ute Becker             : Parallelization
   Giovanni Bistoni       : ED, misc. LED, open-shell LED, HFLED
   Martin Brehm           : Molecular dynamics
   Dmytro Bykov           : SCF Hessian
   Vijay G. Chilkuri      : MRCI spin determinant printing, contributions to CSF-ICE
   Dipayan Datta          : RHF DLPNO-CCSD density
   Achintya Kumar Dutta   : EOM-CC, STEOM-CC
   Dmitry Ganyushin       : Spin-Orbit,Spin-Spin,Magnetic field MRCI
   Miquel Garcia          : C-PCM Hessian, Gaussian charge scheme
   Yang Guo               : DLPNO-NEVPT2, CIM, IAO-localization
   Andreas Hansen         : Spin unrestricted coupled pair/coupled cluster methods
   Benjamin Helmich-Paris : CASSCF linear response (MC-RPA)
   Lee Huntington         : MR-EOM, pCC
   Robert Izsak           : Overlap fitted RIJCOSX, COSX-SCS-MP3, EOM
   Christian Kollmar      : KDIIS, OOCD, Brueckner-CCSD(T), CCSD density
   Simone Kossmann        : Meta GGA functionals, TD-DFT gradient, OOMP2, MP2 Hessian
   Martin Krupicka        : AUTO-CI
   Lucas Lang             : DCDCAS
   Dagmar Lenk            : GEPOL surface, SMD
   Dimitrios Liakos       : Extrapolation schemes; Compound Job, initial MDCI parallelization
   Dimitrios Manganas     : Further ROCIS development; embedding schemes
   Dimitrios Pantazis     : SARC Basis sets
   Taras Petrenko         : DFT Hessian,TD-DFT gradient, ASA, ECA, R-Raman, ABS, FL, XAS/XES, NRVS
   Peter Pinski           : DLPNO-MP2, DLPNO-MP2 Gradient
   Christoph Reimann      : Effective Core Potentials
   Marius Retegan         : Local ZFS, SOC
   Christoph Riplinger    : Optimizer, TS searches, QM/MM, DLPNO-CCSD(T), (RO)-DLPNO pert. Triples
   Tobias Risthaus        : Range-separated hybrids, TD-DFT gradient, RPA, STAB
   Michael Roemelt        : Original ROCIS implementation
   Masaaki Saitow         : Open-shell DLPNO-CCSD energy and density
   Barbara Sandhoefer     : DKH picture change effects
   Avijit Sen             : IP-ROCIS
   Kantharuban Sivalingam : CASSCF convergence, NEVPT2, FIC-MRCI
   Bernardo de Souza      : ESD, SOC TD-DFT
   Georgi Stoychev        : AutoAux, RI-MP2 NMR
   Willem Van den Heuvel  : Paramagnetic NMR
   Boris Wezisla          : Elementary symmetry handling
   Frank Wennmohs         : Technical directorship


 We gratefully acknowledge several colleagues who have allowed us to
 interface, adapt or use parts of their codes:
   Stefan Grimme, W. Hujo, H. Kruse,             : VdW corrections, initial TS optimization,
                  C. Bannwarth                     DFT functionals, gCP, sTDA/sTD-DF
   Ed Valeev, F. Pavosevic, A. Kumar             : LibInt (2-el integral package), F12 methods
   Garnet Chan, S. Sharma, J. Yang, R. Olivares  : DMRG
   Ulf Ekstrom                                   : XCFun DFT Library
   Mihaly Kallay                                 : mrcc  (arbitrary order and MRCC methods)
   Andreas Klamt, Michael Diedenhofen            : otool_cosmo (COSMO solvation model)
   Jiri Pittner, Ondrej Demel                    : Mk-CCSD
   Frank Weinhold                                : gennbo (NPA and NBO analysis)
   Christopher J. Cramer and Donald G. Truhlar   : smd solvation model
   Lars Goerigk                                  : TD-DFT with DH, B97 family of functionals
   V. Asgeirsson, H. Jonsson                     : NEB implementation
   FAccTs GmbH                                   : IRC, NEB, NEB-TS, Multilevel, MM, QM/MM, CI optimization
   S Lehtola, MJT Oliveira, MAL Marques          : LibXC Library


 Your calculation uses the libint2 library for the computation of 2-el integrals
 For citations please refer to: http://libint.valeyev.net

 Your ORCA version has been built with support for libXC version: 4.2.3
 For citations please refer to: https://tddft.org/programs/libxc/

 This ORCA versions uses:
   CBLAS   interface :  Fast vector & matrix operations
   LAPACKE interface :  Fast linear algebra routines
   SCALAPACK package :  Parallel linear algebra routines


Your calculation utilizes the atom-pairwise dispersion correction
with the zero-damping scheme (D30)
Cite in your paper:
S.Grimme, J.Antony, S.Ehrlich and H.Krieg, J.Chem.Phys., 132, (2010), 154104 
   

XCFun DFT library Copyright 2009-2010 Ulf Ekstrom and contributors.
See http://admol.org/xcfun for more information. This is free soft-
ware; see the source code for copying conditions. There is ABSOLUTELY
NO WARRANTY; not even for MERCHANTABILITY or FITNESS FOR A PARTICULAR
PURPOSE. For details see the documentation. Scientific users of this 
library should cite U. Ekstrom, L. Visscher, R. Bast, A. J. Thorvald-
sen and K. Ruud; J.Chem.Theor.Comp. 2010, DOI: 10.1021/ct100117s
XCFun Version 0.99 
----- Orbital basis set information -----
Your calculation utilizes the basis: def2-SVP
   F. Weigend and R. Ahlrichs, Phys. Chem. Chem. Phys. 7, 3297 (2005).

================================================================================
                                        WARNINGS
                       Please study these warnings very carefully!
================================================================================


WARNING: Geometry Optimization
  ===> : Switching off AutoStart
         For restart on a previous wavefunction, please use MOREAD

INFO   : the flag for use of LIBINT has been found!

================================================================================
                                       INPUT FILE
================================================================================
NAME = 043547407.inp
|  1> # ORCA input file
|  2> # -50.55113560
|  3> ! wB97X-D3 def2-SVP Opt
|  4> * xyz 0 1
|  5>    C       -3.73460        -1.22870        -1.23760
|  6>    C       -3.06360        -0.17840        -0.42980
|  7>    C       -2.06290        -0.25130         0.52400
|  8>    C       -1.84590         1.08490         0.93880
|  9>    N       -2.65460         1.90280         0.28880
| 10>    N       -3.37070         1.13780        -0.53530
| 11>    H       -4.06890         1.55660        -1.12780
| 12>    C       -0.87480         1.57000         1.95600
| 13>    H       -1.11870         1.17200         2.94130
| 14>    H        0.13800         1.25800         1.69810
| 15>    H       -0.91310         2.65420         1.99670
| 16>    N       -1.43460        -1.41480         1.00160
| 17>    H       -0.92530        -1.19860         1.85320
| 18>    C       -0.54770        -2.08290         0.05150
| 19>    C        0.63910        -1.21180        -0.27210
| 20>    C        1.79140        -1.28600         0.50120
| 21>    C        2.82980        -0.40020         0.28640
| 22>    C        2.72400         0.57910        -0.69310
| 23>    C        1.57880         0.66420        -1.46370
| 24>    C        0.54520        -0.22980        -1.25250
| 25>    H       -0.34710        -0.16010        -1.85480
| 26>    H        1.51170         1.43160        -2.21790
| 27>    F        3.73220         1.44450        -0.89900
| 28>    F        3.94170        -0.49240         1.03780
| 29>    H        1.89590        -2.03270         1.27380
| 30>    H       -0.22640        -3.02450         0.50320
| 31>    H       -1.12120        -2.29950        -0.85120
| 32>    H       -3.25460        -1.34690        -2.21110
| 33>    H       -3.68610        -2.17800        -0.71040
| 34>    H       -4.77850        -0.96950        -1.40500
| 35> *
| 36> 
| 37>                          ****END OF INPUT****
================================================================================

                       *****************************
                       * Geometry Optimization Run *
                       *****************************

Geometry optimization settings:
Update method            Update   .... BFGS
Choice of coordinates    CoordSys .... Z-matrix Internals
Initial Hessian          InHess   .... Almoef's Model

Convergence Tolerances:
Energy Change            TolE     ....  5.0000e-06 Eh
Max. Gradient            TolMAXG  ....  3.0000e-04 Eh/bohr
RMS Gradient             TolRMSG  ....  1.0000e-04 Eh/bohr
Max. Displacement        TolMAXD  ....  4.0000e-03 bohr
RMS Displacement         TolRMSD  ....  2.0000e-03 bohr
Strict Convergence                ....  False
------------------------------------------------------------------------------
                        ORCA OPTIMIZATION COORDINATE SETUP
------------------------------------------------------------------------------

The optimization will be done in new redundant internal coordinates
Making redundant internal coordinates   ...  (new redundants) done
Evaluating the initial hessian          ...  (Almloef) done
Evaluating the coordinates              ...  done
Calculating the B-matrix                .... done
Calculating the G-matrix                .... done
Diagonalizing the G-matrix              .... done
Small eigenvalue found = 4.589e-03
Small eigenvalue found = 6.697e-03
Small eigenvalue found = 1.074e-02
The first mode is                       ....   67
The number of degrees of freedom        ....   84

    -----------------------------------------------------------------
                    Redundant Internal Coordinates


    -----------------------------------------------------------------
         Definition                    Initial Value    Approx d2E/dq
    -----------------------------------------------------------------
      1. B(C   1,C   0)                  1.4852         0.440355   
      2. B(C   2,C   1)                  1.3844         0.637880   
      3. B(C   3,C   2)                  1.4158         0.568233   
      4. B(N   4,C   3)                  1.3212         0.720626   
      5. B(N   5,N   4)                  1.3331         0.617713   
      6. B(N   5,C   1)                  1.3557         0.634830   
      7. B(H   6,N   5)                  1.0069         0.437596   
      8. B(C   7,C   3)                  1.4876         0.436486   
      9. B(H   8,C   7)                  1.0903         0.359732   
     10. B(H   9,C   7)                  1.0907         0.359179   
     11. B(H  10,C   7)                  1.0856         0.365915   
     12. B(N  11,C   2)                  1.4059         0.527819   
     13. B(H  12,N  11)                  1.0156         0.423968   
     14. B(C  13,N  11)                  1.4614         0.430516   
     15. B(C  14,C  13)                  1.5073         0.406027   
     16. B(C  15,C  14)                  1.3897         0.625462   
     17. B(C  16,C  15)                  1.3817         0.644175   
     18. B(C  17,C  16)                  1.3891         0.626829   
     19. B(C  18,C  17)                  1.3829         0.641191   
     20. B(C  19,C  18)                  1.3828         0.641513   
     21. B(C  19,C  14)                  1.3908         0.622962   
     22. B(H  20,C  19)                  1.0788         0.375217   
     23. B(H  21,C  18)                  1.0781         0.376241   
     24. B(F  22,C  17)                  1.3445         0.614470   
     25. B(F  23,C  16)                  1.3451         0.613090   
     26. B(H  24,C  15)                  1.0795         0.374216   
     27. B(H  25,C  13)                  1.0926         0.356616   
     28. B(H  26,C  13)                  1.0912         0.358536   
     29. B(H  27,C   0)                  1.0918         0.357699   
     30. B(H  28,C   0)                  1.0870         0.364156   
     31. B(H  29,C   0)                  1.0885         0.362027   
     32. A(C   1,C   0,H  27)          111.2776         0.332874   
     33. A(H  27,C   0,H  28)          108.5600         0.291046   
     34. A(C   1,C   0,H  28)          109.4904         0.333863   
     35. A(H  27,C   0,H  29)          108.0750         0.290778   
     36. A(C   1,C   0,H  29)          110.3960         0.333539   
     37. A(H  28,C   0,H  29)          108.9862         0.291596   
     38. A(C   0,C   1,C   2)          131.6107         0.410415   
     39. A(C   2,C   1,N   5)          105.5748         0.435284   
     40. A(C   0,C   1,N   5)          122.8136         0.407424   
     41. A(C   1,C   2,N  11)          126.9185         0.421113   
     42. A(C   1,C   2,C   3)          105.2449         0.429507   
     43. A(C   3,C   2,N  11)          127.8075         0.412535   
     44. A(N   4,C   3,C   7)          122.2838         0.416039   
     45. A(C   2,C   3,C   7)          127.4540         0.401488   
     46. A(C   2,C   3,N   4)          110.2613         0.436158   
     47. A(C   3,N   4,N   5)          106.1225         0.436925   
     48. A(N   4,N   5,H   6)          119.8374         0.356862   
     49. A(C   1,N   5,N   4)          112.7898         0.427085   
     50. A(C   1,N   5,H   6)          127.3491         0.360805   
     51. A(C   3,C   7,H  10)          109.1633         0.333642   
     52. A(H   8,C   7,H   9)          108.4811         0.290676   
     53. A(C   3,C   7,H   9)          110.5608         0.332615   
     54. A(C   3,C   7,H   8)          110.6627         0.332700   
     55. A(H   9,C   7,H  10)          109.1050         0.291455   
     56. A(H   8,C   7,H  10)          108.8317         0.291526   
     57. A(C   2,N  11,C  13)          115.3853         0.390336   
     58. A(C   2,N  11,H  12)          109.4389         0.347823   
     59. A(H  12,N  11,C  13)          109.7641         0.336157   
     60. A(N  11,C  13,C  14)          110.6838         0.375320   
     61. A(C  14,C  13,H  26)          110.5441         0.328562   
     62. A(N  11,C  13,H  26)          108.0362         0.329761   
     63. A(N  11,C  13,H  25)          107.6778         0.329468   
     64. A(C  14,C  13,H  25)          110.8085         0.328271   
     65. A(H  25,C  13,H  26)          108.9947         0.290197   
     66. A(C  15,C  14,C  19)          119.0734         0.435125   
     67. A(C  13,C  14,C  19)          120.4125         0.402879   
     68. A(C  13,C  14,C  15)          120.1676         0.403163   
     69. A(C  14,C  15,C  16)          120.1602         0.437758   
     70. A(C  16,C  15,H  24)          118.8130         0.357530   
     71. A(C  14,C  15,H  24)          121.0264         0.355745   
     72. A(C  15,C  16,C  17)          120.2878         0.437930   
     73. A(C  17,C  16,F  23)          120.3420         0.429296   
     74. A(C  15,C  16,F  23)          119.3698         0.431405   
     75. A(C  16,C  17,C  18)          119.9575         0.437564   
     76. A(C  18,C  17,F  22)          119.7358         0.431219   
     77. A(C  16,C  17,F  22)          120.3065         0.429469   
     78. A(C  17,C  18,C  19)          119.6088         0.439396   
     79. A(C  19,C  18,H  21)          121.3679         0.357607   
     80. A(C  17,C  18,H  21)          119.0232         0.357576   
     81. A(C  14,C  19,C  18)          120.9091         0.437116   
     82. A(C  18,C  19,H  20)          119.4194         0.357441   
     83. A(C  14,C  19,H  20)          119.6710         0.355664   
     84. D(C   2,C   1,C   0,H  27)    -94.1025         0.014308   
     85. D(N   5,C   1,C   0,H  28)   -154.4806         0.014308   
     86. D(C   2,C   1,C   0,H  28)     25.9093         0.014308   
     87. D(C   2,C   1,C   0,H  29)    145.8958         0.014308   
     88. D(N   5,C   1,C   0,H  27)     85.5077         0.014308   
     89. D(N   5,C   1,C   0,H  29)    -34.4941         0.014308   
     90. D(C   3,C   2,C   1,C   0)   -179.9693         0.028258   
     91. D(N  11,C   2,C   1,C   0)     -1.8179         0.028258   
     92. D(N  11,C   2,C   1,N   5)    178.5223         0.028258   
     93. D(C   3,C   2,C   1,N   5)      0.3708         0.028258   
     94. D(C   7,C   3,C   2,C   1)    179.7879         0.022143   
     95. D(C   7,C   3,C   2,N  11)      1.6585         0.022143   
     96. D(N   4,C   3,C   2,N  11)   -177.9955         0.022143   
     97. D(N   4,C   3,C   2,C   1)      0.1339         0.022143   
     98. D(N   5,N   4,C   3,C   2)     -0.5904         0.039112   
     99. D(N   5,N   4,C   3,C   7)    179.7345         0.039112   
    100. D(H   6,N   5,N   4,C   3)    179.2232         0.032864   
    101. D(C   1,N   5,N   4,C   3)      0.8642         0.032864   
    102. D(H   6,N   5,C   1,C   2)   -178.9880         0.032758   
    103. D(N   4,N   5,C   1,C   2)     -0.7787         0.032758   
    104. D(N   4,N   5,C   1,C   0)    179.5238         0.032758   
    105. D(H   6,N   5,C   1,C   0)      1.3146         0.032758   
    106. D(H  10,C   7,C   3,N   4)     -3.8792         0.014062   
    107. D(H  10,C   7,C   3,C   2)    176.5047         0.014062   
    108. D(H   9,C   7,C   3,N   4)   -123.9074         0.014062   
    109. D(H   9,C   7,C   3,C   2)     56.4766         0.014062   
    110. D(H   8,C   7,C   3,N   4)    115.8746         0.014062   
    111. D(H   8,C   7,C   3,C   2)    -63.7414         0.014062   
    112. D(C  13,N  11,C   2,C   1)     70.3681         0.022116   
    113. D(H  12,N  11,C   2,C   3)     12.4698         0.022116   
    114. D(H  12,N  11,C   2,C   1)   -165.2726         0.022116   
    115. D(C  13,N  11,C   2,C   3)   -111.8895         0.022116   
    116. D(H  26,C  13,N  11,H  12)   -179.8675         0.015802   
    117. D(H  26,C  13,N  11,C   2)    -55.6782         0.015802   
    118. D(H  25,C  13,N  11,H  12)     62.5487         0.015802   
    119. D(H  25,C  13,N  11,C   2)   -173.2620         0.015802   
    120. D(C  14,C  13,N  11,H  12)    -58.7077         0.015802   
    121. D(C  14,C  13,N  11,C   2)     65.4816         0.015802   
    122. D(C  19,C  14,C  13,H  26)     35.6600         0.012219   
    123. D(C  19,C  14,C  13,H  25)    156.6082         0.012219   
    124. D(C  19,C  14,C  13,N  11)    -84.0042         0.012219   
    125. D(C  15,C  14,C  13,H  26)   -151.1606         0.012219   
    126. D(C  15,C  14,C  13,H  25)    -30.2124         0.012219   
    127. D(C  15,C  14,C  13,N  11)     89.1752         0.012219   
    128. D(H  24,C  15,C  14,C  19)    179.7152         0.027099   
    129. D(H  24,C  15,C  14,C  13)      6.4449         0.027099   
    130. D(C  16,C  15,C  14,C  19)     -0.5162         0.027099   
    131. D(C  16,C  15,C  14,C  13)   -173.7865         0.027099   
    132. D(F  23,C  16,C  15,H  24)      0.2423         0.028856   
    133. D(F  23,C  16,C  15,C  14)   -179.5313         0.028856   
    134. D(C  17,C  16,C  15,H  24)   -179.5273         0.028856   
    135. D(C  17,C  16,C  15,C  14)      0.6991         0.028856   
    136. D(F  22,C  17,C  16,F  23)     -0.0212         0.027225   
    137. D(F  22,C  17,C  16,C  15)    179.7462         0.027225   
    138. D(C  18,C  17,C  16,F  23)    179.8105         0.027225   
    139. D(C  18,C  17,C  16,C  15)     -0.4221         0.027225   
    140. D(H  21,C  18,C  17,F  22)     -0.3225         0.028572   
    141. D(H  21,C  18,C  17,C  16)    179.8449         0.028572   
    142. D(C  19,C  18,C  17,F  22)    179.8004         0.028572   
    143. D(C  19,C  18,C  17,C  16)     -0.0323         0.028572   
    144. D(H  20,C  19,C  14,C  13)     -6.4201         0.026870   
    145. D(C  18,C  19,C  14,C  15)      0.0620         0.026870   
    146. D(C  18,C  19,C  14,C  13)    173.3154         0.026870   
    147. D(H  20,C  19,C  18,H  21)      0.0731         0.028602   
    148. D(H  20,C  19,C  18,C  17)    179.9473         0.028602   
    149. D(C  14,C  19,C  18,H  21)   -179.6631         0.028602   
    150. D(C  14,C  19,C  18,C  17)      0.2110         0.028602   
    151. D(H  20,C  19,C  14,C  15)   -179.6735         0.026870   
    -----------------------------------------------------------------

Number of atoms                         .... 30
Number of degrees of freedom            .... 151

         *************************************************************
         *                GEOMETRY OPTIMIZATION CYCLE   1            *
         *************************************************************
---------------------------------
CARTESIAN COORDINATES (ANGSTROEM)
---------------------------------
  C     -3.734600   -1.228700   -1.237600
  C     -3.063600   -0.178400   -0.429800
  C     -2.062900   -0.251300    0.524000
  C     -1.845900    1.084900    0.938800
  N     -2.654600    1.902800    0.288800
  N     -3.370700    1.137800   -0.535300
  H     -4.068900    1.556600   -1.127800
  C     -0.874800    1.570000    1.956000
  H     -1.118700    1.172000    2.941300
  H      0.138000    1.258000    1.698100
  H     -0.913100    2.654200    1.996700
  N     -1.434600   -1.414800    1.001600
  H     -0.925300   -1.198600    1.853200
  C     -0.547700   -2.082900    0.051500
  C      0.639100   -1.211800   -0.272100
  C      1.791400   -1.286000    0.501200
  C      2.829800   -0.400200    0.286400
  C      2.724000    0.579100   -0.693100
  C      1.578800    0.664200   -1.463700
  C      0.545200   -0.229800   -1.252500
  H     -0.347100   -0.160100   -1.854800
  H      1.511700    1.431600   -2.217900
  F      3.732200    1.444500   -0.899000
  F      3.941700   -0.492400    1.037800
  H      1.895900   -2.032700    1.273800
  H     -0.226400   -3.024500    0.503200
  H     -1.121200   -2.299500   -0.851200
  H     -3.254600   -1.346900   -2.211100
  H     -3.686100   -2.178000   -0.710400
  H     -4.778500   -0.969500   -1.405000

----------------------------
CARTESIAN COORDINATES (A.U.)
----------------------------
  NO LB      ZA    FRAG     MASS         X           Y           Z
   0 C     6.0000    0    12.011   -7.057371   -2.321907   -2.338725
   1 C     6.0000    0    12.011   -5.789365   -0.337127   -0.812204
   2 C     6.0000    0    12.011   -3.898316   -0.474888    0.990216
   3 C     6.0000    0    12.011   -3.488245    2.050164    1.774075
   4 N     7.0000    0    14.007   -5.016467    3.595771    0.545753
   5 N     7.0000    0    14.007   -6.369700    2.150130   -1.011570
   6 H     1.0000    0     1.008   -7.689107    2.941548   -2.131233
   7 C     6.0000    0    12.011   -1.653132    2.966870    3.696304
   8 H     1.0000    0     1.008   -2.114037    2.214759    5.558251
   9 H     1.0000    0     1.008    0.260782    2.377275    3.208944
  10 H     1.0000    0     1.008   -1.725509    5.015711    3.773216
  11 N     7.0000    0    14.007   -2.711001   -2.673585    1.892750
  12 H     1.0000    0     1.008   -1.748564   -2.265026    3.502040
  13 C     6.0000    0    12.011   -1.035003   -3.936111    0.097321
  14 C     6.0000    0    12.011    1.207724   -2.289970   -0.514194
  15 C     6.0000    0    12.011    3.385255   -2.430188    0.947131
  16 C     6.0000    0    12.011    5.347547   -0.756268    0.541218
  17 C     6.0000    0    12.011    5.147614    1.094340   -1.309769
  18 C     6.0000    0    12.011    2.983500    1.255156   -2.765992
  19 C     6.0000    0    12.011    1.030279   -0.434259   -2.366882
  20 H     1.0000    0     1.008   -0.655924   -0.302545   -3.505064
  21 H     1.0000    0     1.008    2.856699    2.705332   -4.191224
  22 F     9.0000    0    18.998    7.052836    2.729709   -1.698864
  23 F     9.0000    0    18.998    7.448734   -0.930501    1.961158
  24 H     1.0000    0     1.008    3.582732   -3.841246    2.407133
  25 H     1.0000    0     1.008   -0.427834   -5.715477    0.950910
  26 H     1.0000    0     1.008   -2.118761   -4.345425   -1.608535
  27 H     1.0000    0     1.008   -6.150303   -2.545272   -4.178373
  28 H     1.0000    0     1.008   -6.965720   -4.115824   -1.342461
  29 H     1.0000    0     1.008   -9.030056   -1.832089   -2.655065

--------------------------------
INTERNAL COORDINATES (ANGSTROEM)
--------------------------------
 C      0   0   0     0.000000000000     0.00000000     0.00000000
 C      1   0   0     1.485231271553     0.00000000     0.00000000
 C      2   1   0     1.384358819093   131.61074894     0.00000000
 C      3   2   1     1.415831374140   105.24494235   180.03070238
 N      4   3   2     1.321157106479   110.26128949     0.13390828
 N      5   4   3     1.333103529363   106.12248844   359.40957488
 H      6   5   4     1.006942366772   119.83744274   179.22317052
 C      4   3   2     1.487633375533   127.45397917   179.78787393
 H      8   4   3     1.090278542392   110.66272974   296.25862892
 H      8   4   3     1.090697139448   110.56076088    56.47655173
 H      8   4   3     1.085639452120   109.16325260   176.50474210
 N      3   2   1     1.405914257699   126.91848506   358.18212819
 H     12   3   2     1.015554769572   109.43891849   194.72735265
 C     12   3   2     1.461382643253   115.38533326    70.36808696
 C     14  12   3     1.507324255096   110.68378835    65.48162362
 C     15  14  12     1.389709976938   120.16760927    89.17516208
 C     16  15  14     1.381685651659   120.16020815   186.21348463
 C     17  16  15     1.389115682728   120.28780441     0.69905137
 C     18  17  16     1.382949532702   119.95747202   359.57787854
 C     19  18  17     1.382812496328   119.60875206   359.96773813
 H     20  19  18     1.078806131796   119.41940272   179.94725396
 H     19  18  17     1.078064381194   119.02321711   179.84487430
 F     18  17  16     1.344536801281   120.30649559   179.74619739
 F     17  16  15     1.345148471359   119.36976243   180.46870098
 H     16  15  14     1.079533186150   121.02639621     6.44493100
 H     14  12   3     1.092646850542   107.67782884   186.73802743
 H     14  12   3     1.091185181351   108.03619640   304.32183065
 H      1   2   3     1.091821180414   111.27755256   265.89752085
 H      1   2   3     1.086951047656   109.49040390    25.90926813
 H      1   2   3     1.088547017818   110.39595695   145.89579499

---------------------------
INTERNAL COORDINATES (A.U.)
---------------------------
 C      0   0   0     0.000000000000     0.00000000     0.00000000
 C      1   0   0     2.806680348771     0.00000000     0.00000000
 C      2   1   0     2.616059039164   131.61074894     0.00000000
 C      3   2   1     2.675533548939   105.24494235   180.03070238
 N      4   3   2     2.496625111129   110.26128949     0.13390828
 N      5   4   3     2.519200578660   106.12248844   359.40957488
 H      6   5   4     1.902845305841   119.83744274   179.22317052
 C      4   3   2     2.811219667438   127.45397917   179.78787393
 H      8   4   3     2.060327854811   110.66272974   296.25862892
 H      8   4   3     2.061118888608   110.56076088    56.47655173
 H      8   4   3     2.051561244688   109.16325260   176.50474210
 N      3   2   1     2.656792914825   126.91848506   358.18212819
 H     12   3   2     1.919120388488   109.43891849   194.72735265
 C     12   3   2     2.761612972613   115.38533326    70.36808696
 C     14  12   3     2.848430037148   110.68378835    65.48162362
 C     15  14  12     2.626171261990   120.16760927    89.17516208
 C     16  15  14     2.611007484804   120.16020815   186.21348463
 C     17  16  15     2.625048208690   120.28780441     0.69905137
 C     18  17  16     2.613395873841   119.95747202   359.57787854
 C     19  18  17     2.613136912623   119.60875206   359.96773813
 H     20  19  18     2.038648140689   119.41940272   179.94725396
 H     19  18  17     2.037246435193   119.02321711   179.84487430
 F     18  17  16     2.540806331400   120.30649559   179.74619739
 F     17  16  15     2.541962220332   119.36976243   180.46870098
 H     16  15  14     2.040022074304   121.02639621     6.44493100
 H     14  12   3     2.064803308617   107.67782884   186.73802743
 H     14  12   3     2.062041154147   108.03619640   304.32183065
 H      1   2   3     2.063243018197   111.27755256   265.89752085
 H      1   2   3     2.054039801048   109.49040390    25.90926813
 H      1   2   3     2.057055747572   110.39595695   145.89579499

---------------------
BASIS SET INFORMATION
---------------------
There are 4 groups of distinct atoms

 Group   1 Type C   : 7s4p1d contracted to 3s2p1d pattern {511/31/1}
 Group   2 Type N   : 7s4p1d contracted to 3s2p1d pattern {511/31/1}
 Group   3 Type H   : 4s1p contracted to 2s1p pattern {31/1}
 Group   4 Type F   : 7s4p1d contracted to 3s2p1d pattern {511/31/1}

Atom   0C    basis set group =>   1
Atom   1C    basis set group =>   1
Atom   2C    basis set group =>   1
Atom   3C    basis set group =>   1
Atom   4N    basis set group =>   2
Atom   5N    basis set group =>   2
Atom   6H    basis set group =>   3
Atom   7C    basis set group =>   1
Atom   8H    basis set group =>   3
Atom   9H    basis set group =>   3
Atom  10H    basis set group =>   3
Atom  11N    basis set group =>   2
Atom  12H    basis set group =>   3
Atom  13C    basis set group =>   1
Atom  14C    basis set group =>   1
Atom  15C    basis set group =>   1
Atom  16C    basis set group =>   1
Atom  17C    basis set group =>   1
Atom  18C    basis set group =>   1
Atom  19C    basis set group =>   1
Atom  20H    basis set group =>   3
Atom  21H    basis set group =>   3
Atom  22F    basis set group =>   4
Atom  23F    basis set group =>   4
Atom  24H    basis set group =>   3
Atom  25H    basis set group =>   3
Atom  26H    basis set group =>   3
Atom  27H    basis set group =>   3
Atom  28H    basis set group =>   3
Atom  29H    basis set group =>   3
------------------------------------------------------------------------------
                           ORCA GTO INTEGRAL CALCULATION
------------------------------------------------------------------------------

                         BASIS SET STATISTICS AND STARTUP INFO

 # of primitive gaussian shells          ...  269
 # of primitive gaussian functions       ...  499
 # of contracted shells                  ...  141
 # of contracted basis functions         ...  303
 Highest angular momentum                ...    2
 Maximum contraction depth               ...    5
 Integral package used                   ... LIBINT
 Integral threshhold            Thresh   ...  2.500e-11
 Primitive cut-off              TCut     ...  2.500e-12


------------------------------ INTEGRAL EVALUATION ----------------------------


 * One electron integrals 
 Pre-screening matrix                    ... done
 Shell pair data                         ... done (   0.003 sec)

-------------------------------------------------------------------------------
                                 ORCA SCF
-------------------------------------------------------------------------------

------------
SCF SETTINGS
------------
Hamiltonian:
 Density Functional     Method          .... DFT(GTOs)
 Exchange Functional    Exchange        .... WB97X-D3
 Correlation Functional Correlation     .... WB97X-D3
 Gradients option       PostSCFGGA      .... off
 Hybrid DFT is turned on
   Fraction HF Exchange ScalHFX         ....  0.195728
   Scaling of DF-GGA-X  ScalDFX         ....  0.000000
   Scaling of DF-GGA-C  ScalDFC         ....  1.000000
   Scaling of DF-LDA-C  ScalLDAC        ....  1.000000
   Perturbative correction              ....  0.000000
   Density functional embedding theory  .... OFF
 Long-range corrected/Screened/Range-Separated Hybrid DFT is turned on
   Amount of maximum screened exact exchange              ....  0.804272
   Range separation parameter mu (erf(mu*r12)/r12)        ....  0.250000


General Settings:
 Integral files         IntName         .... 043547407
 Hartree-Fock type      HFTyp           .... RHF
 Total Charge           Charge          ....    0
 Multiplicity           Mult            ....    1
 Number of Electrons    NEL             ....  124
 Basis Dimension        Dim             ....  303
 Nuclear Repulsion      ENuc            ....   1214.7336993403 Eh

Convergence Acceleration:
 DIIS                   CNVDIIS         .... on
   Start iteration      DIISMaxIt       ....    12
   Startup error        DIISStart       ....  0.200000
   # of expansion vecs  DIISMaxEq       ....     5
   Bias factor          DIISBfac        ....   1.050
   Max. coefficient     DIISMaxC        ....  10.000
 Newton-Raphson         CNVNR           .... off
 SOSCF                  CNVSOSCF        .... on
   Start iteration      SOSCFMaxIt      ....   150
   Startup grad/error   SOSCFStart      ....  0.003300
 Level Shifting         CNVShift        .... on
   Level shift para.    LevelShift      ....    0.2500
   Turn off err/grad.   ShiftErr        ....    0.0010
 Zerner damping         CNVZerner       .... off
 Static damping         CNVDamp         .... on
   Fraction old density DampFac         ....    0.7000
   Max. Damping (<1)    DampMax         ....    0.9800
   Min. Damping (>=0)   DampMin         ....    0.0000
   Turn off err/grad.   DampErr         ....    0.1000
 Fernandez-Rico         CNVRico         .... off

SCF Procedure:
 Maximum # iterations   MaxIter         ....   125
 SCF integral mode      SCFMode         .... Direct
   Integral package                     .... LIBINT
 Reset frequency        DirectResetFreq ....    20
 Integral Threshold     Thresh          ....  2.500e-11 Eh
 Primitive CutOff       TCut            ....  2.500e-12 Eh

Convergence Tolerance:
 Convergence Check Mode ConvCheckMode   .... Total+1el-Energy
 Convergence forced     ConvForced      .... 0
 Energy Change          TolE            ....  1.000e-08 Eh
 1-El. energy change                    ....  1.000e-05 Eh
 Orbital Gradient       TolG            ....  1.000e-05
 Orbital Rotation angle TolX            ....  1.000e-05
 DIIS Error             TolErr          ....  5.000e-07


Diagonalization of the overlap matrix:
Smallest eigenvalue                        ... 2.085e-04
Time for diagonalization                   ...    0.035 sec
Threshold for overlap eigenvalues          ... 1.000e-08
Number of eigenvalues below threshold      ... 0
Time for construction of square roots      ...    0.005 sec
Total time needed                          ...    0.041 sec

-------------------
DFT GRID GENERATION
-------------------

General Integration Accuracy     IntAcc      ...  4.340
Radial Grid Type                 RadialGrid  ... Gauss-Chebyshev
Angular Grid (max. acc.)         AngularGrid ... Lebedev-110
Angular grid pruning method      GridPruning ... 3 (G Style)
Weight generation scheme         WeightScheme... Becke
Basis function cutoff            BFCut       ...    1.0000e-11
Integration weight cutoff        WCut        ...    1.0000e-14
Grids for H and He will be reduced by one unit

# of grid points (after initial pruning)     ...  38780 (   0.0 sec)
# of grid points (after weights+screening)   ...  34777 (   0.2 sec)
nearest neighbour list constructed           ...    0.0 sec
Grid point re-assignment to atoms done       ...    0.0 sec
Grid point division into batches done        ...    0.0 sec
Reduced shell lists constructed in    0.3 sec

Total number of grid points                  ...    34777
Total number of batches                      ...      560
Average number of points per batch           ...       62
Average number of grid points per atom       ...     1159
Average number of shells per batch           ...    81.33 (57.68%)
Average number of basis functions per batch  ...   165.62 (54.66%)
Average number of large shells per batch     ...    57.21 (70.35%)
Average number of large basis fcns per batch ...   115.46 (69.71%)
Maximum spatial batch extension              ...  18.65, 23.93, 23.66 au
Average spatial batch extension              ...   3.32,  3.58,  3.61 au

Time for grid setup =    0.542 sec

------------------------------
INITIAL GUESS: MODEL POTENTIAL
------------------------------
Loading Hartree-Fock densities                     ... done
Calculating cut-offs                               ... done
Setting up the integral package                    ... done
Initializing the effective Hamiltonian             ... done
Starting the Coulomb interaction                   ... done (   0.4 sec)
Reading the grid                                   ... done
Mapping shells                                     ... done
Starting the XC term evaluation                    ... done (   0.5 sec)
  promolecular density results
     # of electrons  =    123.988494397
     EX              =   -104.930029929
     EC              =     -4.195767665
     EX+EC           =   -109.125797594
Transforming the Hamiltonian                       ... done (   0.0 sec)
Diagonalizing the Hamiltonian                      ... done (   0.0 sec)
Back transforming the eigenvectors                 ... done (   0.0 sec)
Now organizing SCF variables                       ... done
                      ------------------
                      INITIAL GUESS DONE (   1.6 sec)
                      ------------------
--------------
SCF ITERATIONS
--------------
ITER       Energy         Delta-E        Max-DP      RMS-DP      [F,P]     Damp
               ***  Starting incremental Fock matrix formation  ***
  0   -827.8671402509   0.000000000000 0.06274162  0.00144307  0.1563018 0.7000
  1   -827.9932654332  -0.126125182368 0.04259043  0.00107070  0.0904533 0.7000
                               ***Turning on DIIS***
  2   -828.0596027401  -0.066337306853 0.07664519  0.00219942  0.0483344 0.0000
  3   -828.1683241774  -0.108721437295 0.03015209  0.00067413  0.0346693 0.0000
  4   -828.1838058438  -0.015481666433 0.00543270  0.00016805  0.0052569 0.0000
                      *** Initiating the SOSCF procedure ***
                           *** Shutting down DIIS ***
                      *** Re-Reading the Fockian *** 
                      *** Removing any level shift *** 
ITER      Energy       Delta-E        Grad      Rot      Max-DP    RMS-DP
  5   -828.18421849  -0.0004126423  0.000750  0.000750  0.002586  0.000070
               *** Restarting incremental Fock matrix formation ***
  6   -828.18428657  -0.0000680796  0.000586  0.001553  0.001186  0.000044
  7   -828.18430581  -0.0000192393  0.000539  0.002470  0.001061  0.000040
  8   -828.18431081  -0.0000050077  0.000181  0.000328  0.000457  0.000014
  9   -828.18431224  -0.0000014223  0.000054  0.000142  0.000118  0.000004
 10   -828.18431231  -0.0000000715  0.000043  0.000111  0.000034  0.000001
 11   -828.18431234  -0.0000000378  0.000012  0.000045  0.000025  0.000001
 12   -828.18431235  -0.0000000008  0.000004  0.000006  0.000010  0.000000
                  ***Gradient check signals convergence***
              ***Rediagonalizing the Fockian in SOSCF/NRSCF***

               *****************************************************
               *                     SUCCESS                       *
               *           SCF CONVERGED AFTER  13 CYCLES          *
               *****************************************************

Setting up the final grid:

General Integration Accuracy     IntAcc      ...  4.670
Radial Grid Type                 RadialGrid  ... Gauss-Chebyshev
Angular Grid (max. acc.)         AngularGrid ... Lebedev-302
Angular grid pruning method      GridPruning ... 3 (G Style)
Weight generation scheme         WeightScheme... Becke
Basis function cutoff            BFCut       ...    1.0000e-11
Integration weight cutoff        WCut        ...    1.0000e-14
Grids for H and He will be reduced by one unit

# of grid points (after initial pruning)     ... 149846 (   0.1 sec)
# of grid points (after weights+screening)   ... 131780 (   0.8 sec)
nearest neighbour list constructed           ...    0.0 sec
Grid point re-assignment to atoms done       ...    0.0 sec
Grid point division into batches done        ...    0.4 sec
Reduced shell lists constructed in    1.5 sec

Total number of grid points                  ...   131780
Total number of batches                      ...     2073
Average number of points per batch           ...       63
Average number of grid points per atom       ...     4393
Average number of shells per batch           ...    74.11 (52.56%)
Average number of basis functions per batch  ...   149.33 (49.28%)
Average number of large shells per batch     ...    51.20 (69.09%)
Average number of large basis fcns per batch ...   102.52 (68.65%)
Maximum spatial batch extension              ...  18.85, 21.17, 20.65 au
Average spatial batch extension              ...   2.23,  2.32,  2.38 au

Final grid set up in    2.3 sec
Final integration                            ... done (   2.4 sec)
Change in XC energy                          ...     0.005139980
Integrated number of electrons               ...   123.999985946
Previous integrated no of electrons          ...   124.002102223

----------------
TOTAL SCF ENERGY
----------------

Total Energy       :         -828.17917237 Eh          -22535.90098 eV

Components:
Nuclear Repulsion  :         1214.73369934 Eh           33054.58442 eV
Electronic Energy  :        -2042.91287171 Eh          -55590.48540 eV
One Electron Energy:        -3541.80725158 Eh          -96377.47505 eV
Two Electron Energy:         1498.89437987 Eh           40786.98965 eV

Virial components:
Potential Energy   :        -1648.83100711 Eh          -44866.97270 eV
Kinetic Energy     :          820.65183474 Eh           22331.07171 eV
Virial Ratio       :            2.00917239


DFT components:
N(Alpha)           :       61.999992973152 electrons
N(Beta)            :       61.999992973152 electrons
N(Total)           :      123.999985946303 electrons
E(XC)              :      -77.242133159080 Eh       
DFET-embed. en.    :        0.000000000000 Eh       

---------------
SCF CONVERGENCE
---------------

  Last Energy change         ...   -2.6569e-09  Tolerance :   1.0000e-08
  Last MAX-Density change    ...    3.1847e-06  Tolerance :   1.0000e-07
  Last RMS-Density change    ...    8.2951e-08  Tolerance :   5.0000e-09
  Last Orbital Gradient      ...    1.2783e-06  Tolerance :   1.0000e-05
  Last Orbital Rotation      ...    3.4893e-06  Tolerance :   1.0000e-05

             **** THE GBW FILE WAS UPDATED (043547407.gbw) ****
             **** DENSITY FILE WAS UPDATED (043547407.scfp) ****
             **** ENERGY FILE WAS UPDATED (043547407.en.tmp) ****
             **** THE GBW FILE WAS UPDATED (043547407.gbw) ****
             **** DENSITY FILE WAS UPDATED (043547407.scfp) ****
----------------
ORBITAL ENERGIES
----------------

  NO   OCC          E(Eh)            E(eV) 
   0   2.0000     -24.808259      -675.0671 
   1   2.0000     -24.806680      -675.0241 
   2   2.0000     -14.494535      -394.4163 
   3   2.0000     -14.432554      -392.7298 
   4   2.0000     -14.429019      -392.6336 
   5   2.0000     -10.387259      -282.6517 
   6   2.0000     -10.385038      -282.5912 
   7   2.0000     -10.328024      -281.0398 
   8   2.0000     -10.318119      -280.7703 
   9   2.0000     -10.310037      -280.5504 
  10   2.0000     -10.309466      -280.5348 
  11   2.0000     -10.309390      -280.5328 
  12   2.0000     -10.304854      -280.4093 
  13   2.0000     -10.302705      -280.3509 
  14   2.0000     -10.298477      -280.2358 
  15   2.0000     -10.296996      -280.1955 
  16   2.0000     -10.280089      -279.7354 
  17   2.0000      -1.335759       -36.3478 
  18   2.0000      -1.321656       -35.9641 
  19   2.0000      -1.155883       -31.4532 
  20   2.0000      -1.040069       -28.3017 
  21   2.0000      -0.993564       -27.0363 
  22   2.0000      -0.938996       -25.5514 
  23   2.0000      -0.903344       -24.5812 
  24   2.0000      -0.880848       -23.9691 
  25   2.0000      -0.876250       -23.8440 
  26   2.0000      -0.823105       -22.3978 
  27   2.0000      -0.818885       -22.2830 
  28   2.0000      -0.788781       -21.4638 
  29   2.0000      -0.751828       -20.4583 
  30   2.0000      -0.722146       -19.6506 
  31   2.0000      -0.687149       -18.6983 
  32   2.0000      -0.673430       -18.3250 
  33   2.0000      -0.664412       -18.0796 
  34   2.0000      -0.642843       -17.4926 
  35   2.0000      -0.631047       -17.1717 
  36   2.0000      -0.625727       -17.0269 
  37   2.0000      -0.597185       -16.2502 
  38   2.0000      -0.583000       -15.8642 
  39   2.0000      -0.573359       -15.6019 
  40   2.0000      -0.567702       -15.4480 
  41   2.0000      -0.557902       -15.1813 
  42   2.0000      -0.554792       -15.0966 
  43   2.0000      -0.547732       -14.9045 
  44   2.0000      -0.537831       -14.6351 
  45   2.0000      -0.528243       -14.3742 
  46   2.0000      -0.523331       -14.2406 
  47   2.0000      -0.518339       -14.1047 
  48   2.0000      -0.506963       -13.7952 
  49   2.0000      -0.494211       -13.4482 
  50   2.0000      -0.491437       -13.3727 
  51   2.0000      -0.484957       -13.1963 
  52   2.0000      -0.469841       -12.7850 
  53   2.0000      -0.462992       -12.5987 
  54   2.0000      -0.460666       -12.5354 
  55   2.0000      -0.456551       -12.4234 
  56   2.0000      -0.393855       -10.7173 
  57   2.0000      -0.364315        -9.9135 
  58   2.0000      -0.359166        -9.7734 
  59   2.0000      -0.335237        -9.1223 
  60   2.0000      -0.326837        -8.8937 
  61   2.0000      -0.286881        -7.8064 
  62   0.0000       0.052473         1.4279 
  63   0.0000       0.062172         1.6918 
  64   0.0000       0.107342         2.9209 
  65   0.0000       0.125366         3.4114 
  66   0.0000       0.139047         3.7837 
  67   0.0000       0.145744         3.9659 
  68   0.0000       0.157237         4.2786 
  69   0.0000       0.162127         4.4117 
  70   0.0000       0.172959         4.7065 
  71   0.0000       0.194800         5.3008 
  72   0.0000       0.204708         5.5704 
  73   0.0000       0.210515         5.7284 
  74   0.0000       0.215427         5.8621 
  75   0.0000       0.216055         5.8791 
  76   0.0000       0.228940         6.2298 
  77   0.0000       0.234162         6.3719 
  78   0.0000       0.244144         6.6435 
  79   0.0000       0.248739         6.7685 
  80   0.0000       0.267209         7.2711 
  81   0.0000       0.288817         7.8591 
  82   0.0000       0.305303         8.3077 
  83   0.0000       0.307667         8.3721 
  84   0.0000       0.314027         8.5451 
  85   0.0000       0.333837         9.0842 
  86   0.0000       0.341730         9.2989 
  87   0.0000       0.351558         9.5664 
  88   0.0000       0.368287        10.0216 
  89   0.0000       0.387042        10.5319 
  90   0.0000       0.390439        10.6244 
  91   0.0000       0.397944        10.8286 
  92   0.0000       0.403499        10.9798 
  93   0.0000       0.429859        11.6971 
  94   0.0000       0.433610        11.7991 
  95   0.0000       0.443212        12.0604 
  96   0.0000       0.487060        13.2536 
  97   0.0000       0.488466        13.2918 
  98   0.0000       0.508664        13.8415 
  99   0.0000       0.531814        14.4714 
 100   0.0000       0.534437        14.5428 
 101   0.0000       0.543610        14.7924 
 102   0.0000       0.560137        15.2421 
 103   0.0000       0.569292        15.4912 
 104   0.0000       0.576150        15.6778 
 105   0.0000       0.579510        15.7693 
 106   0.0000       0.593441        16.1483 
 107   0.0000       0.598264        16.2796 
 108   0.0000       0.602077        16.3833 
 109   0.0000       0.606988        16.5170 
 110   0.0000       0.613051        16.6820 
 111   0.0000       0.618932        16.8420 
 112   0.0000       0.627581        17.0773 
 113   0.0000       0.646500        17.5922 
 114   0.0000       0.651275        17.7221 
 115   0.0000       0.658929        17.9304 
 116   0.0000       0.678172        18.4540 
 117   0.0000       0.683126        18.5888 
 118   0.0000       0.693327        18.8664 
 119   0.0000       0.712220        19.3805 
 120   0.0000       0.715959        19.4822 
 121   0.0000       0.722195        19.6519 
 122   0.0000       0.727474        19.7956 
 123   0.0000       0.739309        20.1176 
 124   0.0000       0.745195        20.2778 
 125   0.0000       0.756872        20.5955 
 126   0.0000       0.762385        20.7455 
 127   0.0000       0.764065        20.7913 
 128   0.0000       0.776934        21.1415 
 129   0.0000       0.785485        21.3741 
 130   0.0000       0.789240        21.4763 
 131   0.0000       0.791680        21.5427 
 132   0.0000       0.801382        21.8067 
 133   0.0000       0.807238        21.9661 
 134   0.0000       0.813254        22.1298 
 135   0.0000       0.828122        22.5343 
 136   0.0000       0.835661        22.7395 
 137   0.0000       0.839135        22.8340 
 138   0.0000       0.859270        23.3819 
 139   0.0000       0.862836        23.4790 
 140   0.0000       0.864979        23.5373 
 141   0.0000       0.877112        23.8674 
 142   0.0000       0.888644        24.1812 
 143   0.0000       0.893890        24.3240 
 144   0.0000       0.908185        24.7130 
 145   0.0000       0.921712        25.0811 
 146   0.0000       0.926425        25.2093 
 147   0.0000       0.929700        25.2984 
 148   0.0000       0.946749        25.7623 
 149   0.0000       0.958969        26.0949 
 150   0.0000       0.980504        26.6809 
 151   0.0000       0.994096        27.0507 
 152   0.0000       1.005097        27.3501 
 153   0.0000       1.017050        27.6753 
 154   0.0000       1.043021        28.3820 
 155   0.0000       1.075350        29.2618 
 156   0.0000       1.078471        29.3467 
 157   0.0000       1.104583        30.0572 
 158   0.0000       1.122813        30.5533 
 159   0.0000       1.146853        31.2075 
 160   0.0000       1.166863        31.7520 
 161   0.0000       1.200429        32.6653 
 162   0.0000       1.221696        33.2440 
 163   0.0000       1.226599        33.3775 
 164   0.0000       1.245121        33.8815 
 165   0.0000       1.252027        34.0694 
 166   0.0000       1.279379        34.8137 
 167   0.0000       1.280052        34.8320 
 168   0.0000       1.294212        35.2173 
 169   0.0000       1.312338        35.7105 
 170   0.0000       1.325483        36.0682 
 171   0.0000       1.333282        36.2805 
 172   0.0000       1.347983        36.6805 
 173   0.0000       1.362840        37.0848 
 174   0.0000       1.375076        37.4177 
 175   0.0000       1.385756        37.7083 
 176   0.0000       1.402579        38.1661 
 177   0.0000       1.410101        38.3708 
 178   0.0000       1.434004        39.0212 
 179   0.0000       1.476033        40.1649 
 180   0.0000       1.522791        41.4372 
 181   0.0000       1.537291        41.8318 
 182   0.0000       1.556846        42.3639 
 183   0.0000       1.581973        43.0477 
 184   0.0000       1.585260        43.1371 
 185   0.0000       1.598034        43.4847 
 186   0.0000       1.600325        43.5471 
 187   0.0000       1.610422        43.8218 
 188   0.0000       1.619719        44.0748 
 189   0.0000       1.640591        44.6427 
 190   0.0000       1.650794        44.9204 
 191   0.0000       1.679192        45.6931 
 192   0.0000       1.700936        46.2848 
 193   0.0000       1.713160        46.6175 
 194   0.0000       1.718987        46.7760 
 195   0.0000       1.768663        48.1278 
 196   0.0000       1.771856        48.2147 
 197   0.0000       1.786948        48.6253 
 198   0.0000       1.802410        49.0461 
 199   0.0000       1.813858        49.3576 
 200   0.0000       1.835767        49.9538 
 201   0.0000       1.842632        50.1406 
 202   0.0000       1.846169        50.2368 
 203   0.0000       1.861706        50.6596 
 204   0.0000       1.872941        50.9653 
 205   0.0000       1.878982        51.1297 
 206   0.0000       1.884740        51.2864 
 207   0.0000       1.888097        51.3777 
 208   0.0000       1.896666        51.6109 
 209   0.0000       1.906119        51.8681 
 210   0.0000       1.910937        51.9992 
 211   0.0000       1.924448        52.3669 
 212   0.0000       1.928004        52.4637 
 213   0.0000       1.953563        53.1591 
 214   0.0000       1.963652        53.4337 
 215   0.0000       1.981436        53.9176 
 216   0.0000       1.984371        53.9975 
 217   0.0000       1.989615        54.1402 
 218   0.0000       2.004578        54.5473 
 219   0.0000       2.024820        55.0981 
 220   0.0000       2.032702        55.3126 
 221   0.0000       2.054638        55.9095 
 222   0.0000       2.061640        56.1001 
 223   0.0000       2.085166        56.7403 
 224   0.0000       2.101806        57.1931 
 225   0.0000       2.108907        57.3863 
 226   0.0000       2.119718        57.6805 
 227   0.0000       2.137835        58.1734 
 228   0.0000       2.145015        58.3688 
 229   0.0000       2.168606        59.0108 
 230   0.0000       2.179534        59.3081 
 231   0.0000       2.194792        59.7233 
 232   0.0000       2.203519        59.9608 
 233   0.0000       2.213071        60.2207 
 234   0.0000       2.232662        60.7538 
 235   0.0000       2.236151        60.8488 
 236   0.0000       2.252830        61.3026 
 237   0.0000       2.264936        61.6320 
 238   0.0000       2.279222        62.0208 
 239   0.0000       2.287654        62.2502 
 240   0.0000       2.314474        62.9800 
 241   0.0000       2.327475        63.3338 
 242   0.0000       2.356314        64.1186 
 243   0.0000       2.369122        64.4671 
 244   0.0000       2.375023        64.6277 
 245   0.0000       2.394433        65.1558 
 246   0.0000       2.410352        65.5890 
 247   0.0000       2.416864        65.7662 
 248   0.0000       2.450569        66.6834 
 249   0.0000       2.481198        67.5168 
 250   0.0000       2.483588        67.5819 
 251   0.0000       2.497800        67.9686 
 252   0.0000       2.512083        68.3572 
 253   0.0000       2.519043        68.5467 
 254   0.0000       2.541776        69.1652 
 255   0.0000       2.560615        69.6779 
 256   0.0000       2.592058        70.5335 
 257   0.0000       2.606079        70.9150 
 258   0.0000       2.620903        71.3184 
 259   0.0000       2.659591        72.3712 
 260   0.0000       2.686245        73.0964 
 261   0.0000       2.705959        73.6329 
 262   0.0000       2.714807        73.8736 
 263   0.0000       2.725715        74.1705 
 264   0.0000       2.756914        75.0194 
 265   0.0000       2.785907        75.8084 
 266   0.0000       2.797998        76.1374 
 267   0.0000       2.844054        77.3906 
 268   0.0000       2.855681        77.7070 
 269   0.0000       2.866051        77.9892 
 270   0.0000       2.891648        78.6857 
 271   0.0000       2.908566        79.1461 
 272   0.0000       2.914887        79.3181 
 273   0.0000       2.928128        79.6784 
 274   0.0000       2.932019        79.7843 
 275   0.0000       3.004959        81.7691 
 276   0.0000       3.028401        82.4070 
 277   0.0000       3.043103        82.8070 
 278   0.0000       3.047177        82.9179 
 279   0.0000       3.066546        83.4450 
 280   0.0000       3.071633        83.5834 
 281   0.0000       3.117212        84.8237 
 282   0.0000       3.134931        85.3058 
 283   0.0000       3.151335        85.7522 
 284   0.0000       3.163283        86.0773 
 285   0.0000       3.183000        86.6138 
 286   0.0000       3.187058        86.7243 
 287   0.0000       3.214021        87.4580 
 288   0.0000       3.219957        87.6195 
 289   0.0000       3.223822        87.7247 
 290   0.0000       3.247721        88.3750 
 291   0.0000       3.267275        88.9071 
 292   0.0000       3.364659        91.5570 
 293   0.0000       3.383207        92.0617 
 294   0.0000       3.454214        93.9939 
 295   0.0000       3.496169        95.1356 
 296   0.0000       3.527769        95.9955 
 297   0.0000       3.565537        97.0232 
 298   0.0000       3.590765        97.7097 
 299   0.0000       3.665829        99.7523 
 300   0.0000       3.747742       101.9812 
 301   0.0000       3.876779       105.4925 
 302   0.0000       4.057783       110.4179 

                    ********************************
                    * MULLIKEN POPULATION ANALYSIS *
                    ********************************

-----------------------
MULLIKEN ATOMIC CHARGES
-----------------------
   0 C :    0.075598
   1 C :   -0.097538
   2 C :   -0.120270
   3 C :   -0.138995
   4 N :   -0.122777
   5 N :   -0.075667
   6 H :    0.138309
   7 C :    0.067913
   8 H :    0.037843
   9 H :    0.033690
  10 H :    0.041084
  11 N :   -0.194415
  12 H :    0.112487
  13 C :    0.198236
  14 C :   -0.093836
  15 C :   -0.108658
  16 C :    0.234540
  17 C :    0.218891
  18 C :   -0.071720
  19 C :    0.017312
  20 H :    0.009722
  21 H :    0.030200
  22 F :   -0.199965
  23 F :   -0.201174
  24 H :    0.016738
  25 H :    0.030430
  26 H :    0.024224
  27 H :    0.047764
  28 H :    0.055888
  29 H :    0.034144
Sum of atomic charges:    0.0000000

--------------------------------
MULLIKEN REDUCED ORBITAL CHARGES
--------------------------------
  0 C s       :     2.893092  s :     2.893092
      pz      :     1.002591  p :     3.003156
      px      :     1.001231
      py      :     0.999334
      dz2     :     0.006317  d :     0.028154
      dxz     :     0.004535
      dyz     :     0.006685
      dx2y2   :     0.006593
      dxy     :     0.004023
  1 C s       :     3.092488  s :     3.092488
      pz      :     1.054786  p :     2.945546
      px      :     1.034796
      py      :     0.855964
      dz2     :     0.011814  d :     0.059504
      dxz     :     0.006320
      dyz     :     0.012331
      dx2y2   :     0.016600
      dxy     :     0.012438
  2 C s       :     3.055733  s :     3.055733
      pz      :     1.079451  p :     3.005974
      px      :     1.029784
      py      :     0.896738
      dz2     :     0.009075  d :     0.058563
      dxz     :     0.007421
      dyz     :     0.010916
      dx2y2   :     0.017941
      dxy     :     0.013210
  3 C s       :     3.122690  s :     3.122690
      pz      :     1.012810  p :     2.953827
      px      :     0.987665
      py      :     0.953352
      dz2     :     0.010807  d :     0.062477
      dxz     :     0.009351
      dyz     :     0.014074
      dx2y2   :     0.013918
      dxy     :     0.014327
  4 N s       :     3.550659  s :     3.550659
      pz      :     1.041621  p :     3.531973
      px      :     1.070290
      py      :     1.420062
      dz2     :     0.007727  d :     0.040146
      dxz     :     0.004387
      dyz     :     0.010863
      dx2y2   :     0.006410
      dxy     :     0.010759
  5 N s       :     3.366800  s :     3.366800
      pz      :     1.304900  p :     3.670207
      px      :     1.286030
      py      :     1.079277
      dz2     :     0.005537  d :     0.038660
      dxz     :     0.006286
      dyz     :     0.009587
      dx2y2   :     0.008099
      dxy     :     0.009152
  6 H s       :     0.820138  s :     0.820138
      pz      :     0.014991  p :     0.041553
      px      :     0.017676
      py      :     0.008886
  7 C s       :     2.902693  s :     2.902693
      pz      :     0.985930  p :     3.002141
      px      :     0.987190
      py      :     1.029021
      dz2     :     0.007790  d :     0.027253
      dxz     :     0.005365
      dyz     :     0.003649
      dx2y2   :     0.007451
      dxy     :     0.002998
  8 H s       :     0.937664  s :     0.937664
      pz      :     0.012792  p :     0.024493
      px      :     0.005441
      py      :     0.006261
  9 H s       :     0.941338  s :     0.941338
      pz      :     0.005414  p :     0.024972
      px      :     0.013702
      py      :     0.005856
 10 H s       :     0.934631  s :     0.934631
      pz      :     0.004569  p :     0.024285
      px      :     0.004640
      py      :     0.015076
 11 N s       :     3.368517  s :     3.368517
      pz      :     1.102309  p :     3.801313
      px      :     1.369589
      py      :     1.329415
      dz2     :     0.003577  d :     0.024585
      dxz     :     0.006543
      dyz     :     0.005023
      dx2y2   :     0.004890
      dxy     :     0.004553
 12 H s       :     0.843329  s :     0.843329
      pz      :     0.020584  p :     0.044184
      px      :     0.013220
      py      :     0.010380
 13 C s       :     2.950194  s :     2.950194
      pz      :     0.946955  p :     2.800828
      px      :     0.894966
      py      :     0.958907
      dz2     :     0.007062  d :     0.050742
      dxz     :     0.013676
      dyz     :     0.009182
      dx2y2   :     0.010042
      dxy     :     0.010781
 14 C s       :     3.040074  s :     3.040074
      pz      :     0.979453  p :     3.010283
      px      :     1.003183
      py      :     1.027647
      dz2     :     0.008339  d :     0.043478
      dxz     :     0.009634
      dyz     :     0.006981
      dx2y2   :     0.009162
      dxy     :     0.009363
 15 C s       :     3.280146  s :     3.280146
      pz      :     0.923220  p :     2.794979
      px      :     0.938684
      py      :     0.933076
      dz2     :     0.005325  d :     0.033533
      dxz     :     0.006958
      dyz     :     0.005262
      dx2y2   :     0.007299
      dxy     :     0.008689
 16 C s       :     3.019032  s :     3.019032
      pz      :     0.916970  p :     2.663618
      px      :     0.747016
      py      :     0.999632
      dz2     :     0.015283  d :     0.082810
      dxz     :     0.021021
      dyz     :     0.010930
      dx2y2   :     0.019297
      dxy     :     0.016279
 17 C s       :     3.020325  s :     3.020325
      pz      :     1.006162  p :     2.678011
      px      :     0.795919
      py      :     0.875930
      dz2     :     0.013587  d :     0.082772
      dxz     :     0.014923
      dyz     :     0.012123
      dx2y2   :     0.020280
      dxy     :     0.021859
 18 C s       :     3.223480  s :     3.223480
      pz      :     0.937394  p :     2.813817
      px      :     0.955438
      py      :     0.920984
      dz2     :     0.004690  d :     0.034423
      dxz     :     0.008152
      dyz     :     0.005699
      dx2y2   :     0.009055
      dxy     :     0.006828
 19 C s       :     3.175745  s :     3.175745
      pz      :     0.949686  p :     2.771386
      px      :     0.866382
      py      :     0.955318
      dz2     :     0.005859  d :     0.035557
      dxz     :     0.007747
      dyz     :     0.006064
      dx2y2   :     0.008641
      dxy     :     0.007246
 20 H s       :     0.966354  s :     0.966354
      pz      :     0.007628  p :     0.023924
      px      :     0.012385
      py      :     0.003911
 21 H s       :     0.945748  s :     0.945748
      pz      :     0.010145  p :     0.024052
      px      :     0.003513
      py      :     0.010395
 22 F s       :     3.891646  s :     3.891646
      pz      :     1.902001  p :     5.300031
      px      :     1.670935
      py      :     1.727094
      dz2     :     0.001106  d :     0.008288
      dxz     :     0.001208
      dyz     :     0.000857
      dx2y2   :     0.001856
      dxy     :     0.003261
 23 F s       :     3.891528  s :     3.891528
      pz      :     1.772133  p :     5.301370
      px      :     1.617302
      py      :     1.911936
      dz2     :     0.001229  d :     0.008276
      dxz     :     0.003180
      dyz     :     0.000587
      dx2y2   :     0.001982
      dxy     :     0.001298
 24 H s       :     0.959256  s :     0.959256
      pz      :     0.010341  p :     0.024005
      px      :     0.003641
      py      :     0.010023
 25 H s       :     0.948015  s :     0.948015
      pz      :     0.005300  p :     0.021555
      px      :     0.004355
      py      :     0.011900
 26 H s       :     0.954032  s :     0.954032
      pz      :     0.010885  p :     0.021744
      px      :     0.006378
      py      :     0.004481
 27 H s       :     0.928140  s :     0.928140
      pz      :     0.012424  p :     0.024095
      px      :     0.006737
      py      :     0.004935
 28 H s       :     0.920032  s :     0.920032
      pz      :     0.007374  p :     0.024080
      px      :     0.004786
      py      :     0.011920
 29 H s       :     0.941585  s :     0.941585
      pz      :     0.005184  p :     0.024271
      px      :     0.014027
      py      :     0.005059


                     *******************************
                     * LOEWDIN POPULATION ANALYSIS *
                     *******************************

----------------------
LOEWDIN ATOMIC CHARGES
----------------------
   0 C :   -0.061229
   1 C :   -0.044028
   2 C :   -0.078927
   3 C :   -0.072545
   4 N :   -0.117765
   5 N :    0.105564
   6 H :    0.083612
   7 C :   -0.061218
   8 H :    0.032546
   9 H :    0.032139
  10 H :    0.042296
  11 N :   -0.072134
  12 H :    0.065074
  13 C :    0.041707
  14 C :   -0.047739
  15 C :   -0.053714
  16 C :    0.059910
  17 C :    0.055306
  18 C :   -0.039507
  19 C :   -0.021805
  20 H :    0.033148
  21 H :    0.043834
  22 F :   -0.066527
  23 F :   -0.067047
  24 H :    0.038513
  25 H :    0.026876
  26 H :    0.026850
  27 H :    0.034818
  28 H :    0.045255
  29 H :    0.036737

-------------------------------
LOEWDIN REDUCED ORBITAL CHARGES
-------------------------------
  0 C s       :     2.817323  s :     2.817323
      pz      :     1.054518  p :     3.168917
      px      :     1.059541
      py      :     1.054857
      dz2     :     0.016175  d :     0.074989
      dxz     :     0.012061
      dyz     :     0.018236
      dx2y2   :     0.018237
      dxy     :     0.010280
  1 C s       :     2.841891  s :     2.841891
      pz      :     1.066812  p :     3.059463
      px      :     1.040925
      py      :     0.951726
      dz2     :     0.026004  d :     0.142674
      dxz     :     0.016635
      dyz     :     0.028620
      dx2y2   :     0.041911
      dxy     :     0.029503
  2 C s       :     2.831573  s :     2.831573
      pz      :     1.065234  p :     3.101660
      px      :     1.040814
      py      :     0.995612
      dz2     :     0.021432  d :     0.145693
      dxz     :     0.019152
      dyz     :     0.026920
      dx2y2   :     0.046068
      dxy     :     0.032122
  3 C s       :     2.853725  s :     2.853725
      pz      :     1.023250  p :     3.071429
      px      :     1.014666
      py      :     1.033512
      dz2     :     0.021330  d :     0.147392
      dxz     :     0.021418
      dyz     :     0.034649
      dx2y2   :     0.033994
      dxy     :     0.036001
  4 N s       :     3.259583  s :     3.259583
      pz      :     1.122346  p :     3.776341
      px      :     1.142887
      py      :     1.511107
      dz2     :     0.015738  d :     0.081841
      dxz     :     0.012378
      dyz     :     0.021362
      dx2y2   :     0.010631
      dxy     :     0.021732
  5 N s       :     3.023561  s :     3.023561
      pz      :     1.315125  p :     3.783285
      px      :     1.306318
      py      :     1.161841
      dz2     :     0.011132  d :     0.087590
      dxz     :     0.012206
      dyz     :     0.022780
      dx2y2   :     0.019856
      dxy     :     0.021617
  6 H s       :     0.794947  s :     0.794947
      pz      :     0.044579  p :     0.121441
      px      :     0.050905
      py      :     0.025957
  7 C s       :     2.819230  s :     2.819230
      pz      :     1.045956  p :     3.168474
      px      :     1.049431
      py      :     1.073087
      dz2     :     0.020600  d :     0.073515
      dxz     :     0.014813
      dyz     :     0.009714
      dx2y2   :     0.020640
      dxy     :     0.007747
  8 H s       :     0.900674  s :     0.900674
      pz      :     0.035358  p :     0.066779
      px      :     0.014691
      py      :     0.016731
  9 H s       :     0.900624  s :     0.900624
      pz      :     0.014754  p :     0.067237
      px      :     0.037002
      py      :     0.015481
 10 H s       :     0.889892  s :     0.889892
      pz      :     0.012725  p :     0.067812
      px      :     0.012815
      py      :     0.042272
 11 N s       :     3.091587  s :     3.091587
      pz      :     1.170099  p :     3.924998
      px      :     1.393738
      py      :     1.361161
      dz2     :     0.009113  d :     0.055549
      dxz     :     0.015650
      dyz     :     0.011613
      dx2y2   :     0.009205
      dxy     :     0.009968
 12 H s       :     0.810599  s :     0.810599
      pz      :     0.054498  p :     0.124327
      px      :     0.039312
      py      :     0.030517
 13 C s       :     2.825068  s :     2.825068
      pz      :     1.008458  p :     3.012486
      px      :     0.989954
      py      :     1.014073
      dz2     :     0.015678  d :     0.120738
      dxz     :     0.034030
      dyz     :     0.020892
      dx2y2   :     0.022505
      dxy     :     0.027633
 14 C s       :     2.851733  s :     2.851733
      pz      :     1.025880  p :     3.086704
      px      :     1.035826
      py      :     1.024998
      dz2     :     0.019446  d :     0.109302
      dxz     :     0.025363
      dyz     :     0.018068
      dx2y2   :     0.023034
      dxy     :     0.023391
 15 C s       :     2.853807  s :     2.853807
      pz      :     1.033767  p :     3.108983
      px      :     1.047043
      py      :     1.028174
      dz2     :     0.013316  d :     0.090924
      dxz     :     0.019186
      dyz     :     0.014033
      dx2y2   :     0.020039
      dxy     :     0.024350
 16 C s       :     2.847139  s :     2.847139
      pz      :     0.962305  p :     2.903840
      px      :     0.878589
      py      :     1.062946
      dz2     :     0.032925  d :     0.189111
      dxz     :     0.046603
      dyz     :     0.027253
      dx2y2   :     0.043685
      dxy     :     0.038646
 17 C s       :     2.846739  s :     2.846739
      pz      :     1.055059  p :     2.909304
      px      :     0.918346
      py      :     0.935900
      dz2     :     0.029366  d :     0.188651
      dxz     :     0.034620
      dyz     :     0.029981
      dx2y2   :     0.046262
      dxy     :     0.048422
 18 C s       :     2.853535  s :     2.853535
      pz      :     1.018468  p :     3.094986
      px      :     1.045331
      py      :     1.031187
      dz2     :     0.011055  d :     0.090986
      dxz     :     0.022252
      dyz     :     0.014615
      dx2y2   :     0.023796
      dxy     :     0.019267
 19 C s       :     2.847230  s :     2.847230
      pz      :     1.021493  p :     3.080277
      px      :     1.033313
      py      :     1.025471
      dz2     :     0.014137  d :     0.094298
      dxz     :     0.020470
      dyz     :     0.016845
      dx2y2   :     0.022462
      dxy     :     0.020383
 20 H s       :     0.896683  s :     0.896683
      pz      :     0.022931  p :     0.070169
      px      :     0.034552
      py      :     0.012686
 21 H s       :     0.885223  s :     0.885223
      pz      :     0.029314  p :     0.070943
      px      :     0.011952
      py      :     0.029677
 22 F s       :     3.721664  s :     3.721664
      pz      :     1.899167  p :     5.332041
      px      :     1.692076
      py      :     1.740799
      dz2     :     0.001777  d :     0.012821
      dxz     :     0.001779
      dyz     :     0.001270
      dx2y2   :     0.002694
      dxy     :     0.005301
 23 F s       :     3.721896  s :     3.721896
      pz      :     1.781286  p :     5.332370
      px      :     1.642874
      py      :     1.908210
      dz2     :     0.001768  d :     0.012781
      dxz     :     0.005137
      dyz     :     0.000850
      dx2y2   :     0.003148
      dxy     :     0.001878
 24 H s       :     0.890312  s :     0.890312
      pz      :     0.030034  p :     0.071175
      px      :     0.012231
      py      :     0.028910
 25 H s       :     0.908734  s :     0.908734
      pz      :     0.016329  p :     0.064390
      px      :     0.013393
      py      :     0.034668
 26 H s       :     0.908615  s :     0.908615
      pz      :     0.031657  p :     0.064536
      px      :     0.019732
      py      :     0.013146
 27 H s       :     0.898371  s :     0.898371
      pz      :     0.034911  p :     0.066812
      px      :     0.018202
      py      :     0.013698
 28 H s       :     0.887007  s :     0.887007
      pz      :     0.020106  p :     0.067739
      px      :     0.012940
      py      :     0.034693
 29 H s       :     0.896186  s :     0.896186
      pz      :     0.013591  p :     0.067077
      px      :     0.038775
      py      :     0.014711


                      *****************************
                      * MAYER POPULATION ANALYSIS *
                      *****************************

  NA   - Mulliken gross atomic population
  ZA   - Total nuclear charge
  QA   - Mulliken gross atomic charge
  VA   - Mayer's total valence
  BVA  - Mayer's bonded valence
  FA   - Mayer's free valence

  ATOM       NA         ZA         QA         VA         BVA        FA
  0 C      5.9244     6.0000     0.0756     3.9319     3.9319    -0.0000
  1 C      6.0975     6.0000    -0.0975     3.9889     3.9889     0.0000
  2 C      6.1203     6.0000    -0.1203     4.0705     4.0705     0.0000
  3 C      6.1390     6.0000    -0.1390     4.1361     4.1361     0.0000
  4 N      7.1228     7.0000    -0.1228     3.0126     3.0126    -0.0000
  5 N      7.0757     7.0000    -0.0757     3.4505     3.4505    -0.0000
  6 H      0.8617     1.0000     0.1383     0.9944     0.9944    -0.0000
  7 C      5.9321     6.0000     0.0679     3.9390     3.9390     0.0000
  8 H      0.9622     1.0000     0.0378     0.9895     0.9895    -0.0000
  9 H      0.9663     1.0000     0.0337     0.9954     0.9954     0.0000
 10 H      0.9589     1.0000     0.0411     1.0145     1.0145    -0.0000
 11 N      7.1944     7.0000    -0.1944     3.1569     3.1569     0.0000
 12 H      0.8875     1.0000     0.1125     1.0055     1.0055     0.0000
 13 C      5.8018     6.0000     0.1982     3.9765     3.9765    -0.0000
 14 C      6.0938     6.0000    -0.0938     3.8355     3.8355     0.0000
 15 C      6.1087     6.0000    -0.1087     3.8447     3.8447     0.0000
 16 C      5.7655     6.0000     0.2345     3.8577     3.8577    -0.0000
 17 C      5.7811     6.0000     0.2189     3.8517     3.8517    -0.0000
 18 C      6.0717     6.0000    -0.0717     3.8418     3.8418     0.0000
 19 C      5.9827     6.0000     0.0173     3.8634     3.8634     0.0000
 20 H      0.9903     1.0000     0.0097     0.9969     0.9969     0.0000
 21 H      0.9698     1.0000     0.0302     0.9975     0.9975     0.0000
 22 F      9.2000     9.0000    -0.2000     1.1578     1.1578     0.0000
 23 F      9.2012     9.0000    -0.2012     1.1576     1.1576    -0.0000
 24 H      0.9833     1.0000     0.0167     1.0069     1.0069     0.0000
 25 H      0.9696     1.0000     0.0304     0.9898     0.9898     0.0000
 26 H      0.9758     1.0000     0.0242     0.9996     0.9996    -0.0000
 27 H      0.9522     1.0000     0.0478     0.9885     0.9885    -0.0000
 28 H      0.9441     1.0000     0.0559     0.9992     0.9992    -0.0000
 29 H      0.9659     1.0000     0.0341     0.9993     0.9993    -0.0000

  Mayer bond orders larger than 0.100000
B(  0-C ,  1-C ) :   1.0920 B(  0-C , 27-H ) :   0.9497 B(  0-C , 28-H ) :   0.9470 
B(  0-C , 29-H ) :   0.9478 B(  1-C ,  2-C ) :   1.4888 B(  1-C ,  4-N ) :   0.1043 
B(  1-C ,  5-N ) :   1.1965 B(  2-C ,  3-C ) :   1.2876 B(  2-C , 11-N ) :   1.1233 
B(  3-C ,  4-N ) :   1.6524 B(  3-C ,  7-C ) :   1.0836 B(  4-N ,  5-N ) :   1.1625 
B(  5-N ,  6-H ) :   0.9488 B(  7-C ,  8-H ) :   0.9583 B(  7-C ,  9-H ) :   0.9589 
B(  7-C , 10-H ) :   0.9441 B( 11-N , 12-H ) :   0.9345 B( 11-N , 13-C ) :   1.0496 
B( 13-C , 14-C ) :   1.0018 B( 13-C , 25-H ) :   0.9534 B( 13-C , 26-H ) :   0.9476 
B( 14-C , 15-C ) :   1.3512 B( 14-C , 19-C ) :   1.3995 B( 15-C , 16-C ) :   1.3653 
B( 15-C , 18-C ) :   0.1019 B( 15-C , 24-H ) :   1.0003 B( 16-C , 17-C ) :   1.3024 
B( 16-C , 23-F ) :   1.0889 B( 17-C , 18-C ) :   1.3681 B( 17-C , 22-F ) :   1.0935 
B( 18-C , 19-C ) :   1.3688 B( 18-C , 21-H ) :   0.9959 B( 19-C , 20-H ) :   0.9963 


-------
TIMINGS
-------

Total SCF time: 0 days 0 hours 6 min 14 sec 

Total time                  ....     374.506 sec
Sum of individual times     ....     374.220 sec  ( 99.9%)

Fock matrix formation       ....     370.070 sec  ( 98.8%)
  XC integration            ....      10.874 sec  (  2.9% of F)
    Basis function eval.    ....       3.210 sec  ( 29.5% of XC)
    Density eval.           ....       2.189 sec  ( 20.1% of XC)
    XC-Functional eval.     ....       2.268 sec  ( 20.9% of XC)
    XC-Potential eval.      ....       2.918 sec  ( 26.8% of XC)
Diagonalization             ....       0.079 sec  (  0.0%)
Density matrix formation    ....       0.025 sec  (  0.0%)
Population analysis         ....       0.011 sec  (  0.0%)
Initial guess               ....       1.060 sec  (  0.3%)
Orbital Transformation      ....       0.000 sec  (  0.0%)
Orbital Orthonormalization  ....       0.000 sec  (  0.0%)
DIIS solution               ....       0.026 sec  (  0.0%)
SOSCF solution              ....       0.070 sec  (  0.0%)
Grid generation             ....       2.878 sec  (  0.8%)


-------------------------------------------------------------------------------
                          DFT DISPERSION CORRECTION                            
                                                                               
                              DFTD3 V3.1  Rev 1                                
                              USING zero damping                               
-------------------------------------------------------------------------------
The omegaB97X-D3 functional is recognized. Fit by Chai et al.
Active option DFTDOPT                   ...         3   

molecular C6(AA) [au] = 9493.753306 


            DFT-D V3
 parameters
 s6 scaling factor         :     1.0000 
 rs6 scaling factor        :     1.2810 
 s8 scaling factor         :     1.0000 
 rs8 scaling factor        :     1.0940 
 Damping factor alpha6     :    14.0000 
 Damping factor alpha8     :    16.0000 
 ad hoc parameters k1-k3   :    16.0000     1.3333    -4.0000 

 Edisp/kcal,au: -9.116568140631  -0.014528174546 
 E6   /kcal   :  -4.263322626 
 E8   /kcal   :  -4.853245515 
 % E8         :  53.235443864 

-------------------------   ----------------
Dispersion correction           -0.014528175
-------------------------   ----------------


-------------------------   --------------------
FINAL SINGLE POINT ENERGY      -828.193700542540
[...]
 16 C s       :     3.021133  s :     3.021133
      pz      :     0.893221  p :     2.670678
      px      :     0.780013
      py      :     0.997444
      dz2     :     0.016445  d :     0.084957
      dxz     :     0.021698
      dyz     :     0.012419
      dx2y2   :     0.018728
      dxy     :     0.015667
 17 C s       :     3.021240  s :     3.021240
      pz      :     1.004819  p :     2.680167
      px      :     0.795913
      py      :     0.879435
      dz2     :     0.013851  d :     0.084934
      dxz     :     0.015178
      dyz     :     0.012765
      dx2y2   :     0.021138
      dxy     :     0.022002
 18 C s       :     3.225085  s :     3.225085
      pz      :     0.943451  p :     2.827573
      px      :     0.958679
      py      :     0.925443
      dz2     :     0.004965  d :     0.033751
      dxz     :     0.008145
      dyz     :     0.005767
      dx2y2   :     0.008414
      dxy     :     0.006459
 19 C s       :     3.184228  s :     3.184228
      pz      :     0.947616  p :     2.777581
      px      :     0.879876
      py      :     0.950089
      dz2     :     0.005794  d :     0.034742
      dxz     :     0.007555
      dyz     :     0.006074
      dx2y2   :     0.008205
      dxy     :     0.007114
 20 H s       :     0.955518  s :     0.955518
      pz      :     0.008326  p :     0.023273
      px      :     0.011229
      py      :     0.003718
 21 H s       :     0.938592  s :     0.938592
      pz      :     0.009797  p :     0.023473
      px      :     0.003348
      py      :     0.010327
 22 F s       :     3.886474  s :     3.886474
      pz      :     1.909464  p :     5.292264
      px      :     1.652283
      py      :     1.730517
      dz2     :     0.001170  d :     0.008663
      dxz     :     0.001197
      dyz     :     0.000809
      dx2y2   :     0.002050
      dxy     :     0.003437
 23 F s       :     3.886268  s :     3.886268
      pz      :     1.741185  p :     5.293557
      px      :     1.642367
      py      :     1.910005
      dz2     :     0.001457  d :     0.008650
      dxz     :     0.003403
      dyz     :     0.000755
      dx2y2   :     0.001798
      dxy     :     0.001238
 24 H s       :     0.953608  s :     0.953608
      pz      :     0.010050  p :     0.023440
      px      :     0.003428
      py      :     0.009962
 25 H s       :     0.947176  s :     0.947176
      pz      :     0.004834  p :     0.021568
      px      :     0.004204
      py      :     0.012530
 26 H s       :     0.954515  s :     0.954515
      pz      :     0.011659  p :     0.021358
      px      :     0.005237
      py      :     0.004463
 27 H s       :     0.925501  s :     0.925501
      pz      :     0.013597  p :     0.023581
      px      :     0.005296
      py      :     0.004689
 28 H s       :     0.921642  s :     0.921642
      pz      :     0.007122  p :     0.023854
      px      :     0.005003
      py      :     0.011728
 29 H s       :     0.934321  s :     0.934321
      pz      :     0.004933  p :     0.023525
      px      :     0.013956
      py      :     0.004636


                     *******************************
                     * LOEWDIN POPULATION ANALYSIS *
                     *******************************

----------------------
LOEWDIN ATOMIC CHARGES
----------------------
   0 C :   -0.065075
   1 C :   -0.031886
   2 C :   -0.087046
   3 C :   -0.066647
   4 N :   -0.118317
   5 N :    0.102773
   6 H :    0.084865
   7 C :   -0.065329
   8 H :    0.032857
   9 H :    0.033301
  10 H :    0.042476
  11 N :   -0.081496
  12 H :    0.065462
  13 C :    0.038226
  14 C :   -0.049756
  15 C :   -0.056201
  16 C :    0.050853
  17 C :    0.047771
  18 C :   -0.046005
  19 C :   -0.024509
  20 H :    0.036427
  21 H :    0.046170
  22 F :   -0.053553
  23 F :   -0.054109
  24 H :    0.040337
  25 H :    0.027556
  26 H :    0.027380
  27 H :    0.037640
  28 H :    0.047487
  29 H :    0.038349

-------------------------------
LOEWDIN REDUCED ORBITAL CHARGES
-------------------------------
  0 C s       :     2.826267  s :     2.826267
      pz      :     1.059026  p :     3.166351
      px      :     1.053195
      py      :     1.054130
      dz2     :     0.020560  d :     0.072458
      dxz     :     0.006601
      dyz     :     0.015057
      dx2y2   :     0.018313
      dxy     :     0.011928
  1 C s       :     2.846759  s :     2.846759
      pz      :     1.049732  p :     3.042782
      px      :     1.041254
      py      :     0.951796
      dz2     :     0.022921  d :     0.142345
      dxz     :     0.016140
      dyz     :     0.027096
      dx2y2   :     0.045922
      dxy     :     0.030266
  2 C s       :     2.834230  s :     2.834230
      pz      :     1.078967  p :     3.108401
      px      :     1.040621
      py      :     0.988812
      dz2     :     0.018483  d :     0.144415
      dxz     :     0.018165
      dyz     :     0.021940
      dx2y2   :     0.051365
      dxy     :     0.034461
  3 C s       :     2.861315  s :     2.861315
      pz      :     1.013869  p :     3.060487
      px      :     1.011255
      py      :     1.035363
      dz2     :     0.017972  d :     0.144845
      dxz     :     0.020346
      dyz     :     0.031413
      dx2y2   :     0.035791
      dxy     :     0.039323
  4 N s       :     3.266716  s :     3.266716
      pz      :     1.147886  p :     3.770355
      px      :     1.112926
      py      :     1.509543
      dz2     :     0.014192  d :     0.081246
      dxz     :     0.012812
      dyz     :     0.018013
      dx2y2   :     0.011107
      dxy     :     0.025121
  5 N s       :     3.026396  s :     3.026396
      pz      :     1.357947  p :     3.783782
      px      :     1.267273
      py      :     1.158562
      dz2     :     0.008926  d :     0.087049
      dxz     :     0.011373
      dyz     :     0.021009
      dx2y2   :     0.022148
      dxy     :     0.023594
  6 H s       :     0.794998  s :     0.794998
      pz      :     0.042722  p :     0.120137
      px      :     0.051146
      py      :     0.026269
  7 C s       :     2.828344  s :     2.828344
      pz      :     1.048521  p :     3.165638
      px      :     1.046146
      py      :     1.070971
      dz2     :     0.018733  d :     0.071347
      dxz     :     0.015005
      dyz     :     0.009101
      dx2y2   :     0.020930
      dxy     :     0.007579
  8 H s       :     0.902514  s :     0.902514
      pz      :     0.035561  p :     0.064629
      px      :     0.012796
      py      :     0.016272
  9 H s       :     0.900522  s :     0.900522
      pz      :     0.016048  p :     0.066177
      px      :     0.035379
      py      :     0.014750
 10 H s       :     0.891661  s :     0.891661
      pz      :     0.012184  p :     0.065863
      px      :     0.012188
      py      :     0.041491
 11 N s       :     3.087891  s :     3.087891
      pz      :     1.142055  p :     3.938838
      px      :     1.401781
      py      :     1.395003
      dz2     :     0.013188  d :     0.054767
      dxz     :     0.014294
      dyz     :     0.008627
      dx2y2   :     0.009967
      dxy     :     0.008691
 12 H s       :     0.809987  s :     0.809987
      pz      :     0.058946  p :     0.124551
      px      :     0.035208
      py      :     0.030397
 13 C s       :     2.829231  s :     2.829231
      pz      :     1.014110  p :     3.012238
      px      :     0.978368
      py      :     1.019761
      dz2     :     0.020094  d :     0.120304
      dxz     :     0.030978
      dyz     :     0.015989
      dx2y2   :     0.024652
      dxy     :     0.028591
 14 C s       :     2.857857  s :     2.857857
      pz      :     1.029201  p :     3.085442
      px      :     1.030906
      py      :     1.025335
      dz2     :     0.020052  d :     0.106457
      dxz     :     0.024341
      dyz     :     0.018513
      dx2y2   :     0.021546
      dxy     :     0.022005
 15 C s       :     2.860907  s :     2.860907
      pz      :     1.034098  p :     3.106583
      px      :     1.043736
      py      :     1.028749
      dz2     :     0.014079  d :     0.088712
      dxz     :     0.017736
      dyz     :     0.014931
      dx2y2   :     0.019053
      dxy     :     0.022913
 16 C s       :     2.847366  s :     2.847366
      pz      :     0.943035  p :     2.907863
      px      :     0.902206
      py      :     1.062622
      dz2     :     0.035575  d :     0.193919
      dxz     :     0.047992
      dyz     :     0.030735
      dx2y2   :     0.042392
      dxy     :     0.037225
 17 C s       :     2.846862  s :     2.846862
      pz      :     1.062415  p :     2.911696
      px      :     0.910742
      py      :     0.938539
      dz2     :     0.030113  d :     0.193670
      dxz     :     0.035789
      dyz     :     0.031504
      dx2y2   :     0.047558
      dxy     :     0.048707
 18 C s       :     2.860652  s :     2.860652
      pz      :     1.021945  p :     3.096642
      px      :     1.043109
      py      :     1.031588
      dz2     :     0.011843  d :     0.088711
      dxz     :     0.022292
      dyz     :     0.014845
      dx2y2   :     0.021617
      dxy     :     0.018113
 19 C s       :     2.855549  s :     2.855549
      pz      :     1.024361  p :     3.077547
      px      :     1.028448
      py      :     1.024738
      dz2     :     0.014086  d :     0.091414
      dxz     :     0.019899
      dyz     :     0.016646
      dx2y2   :     0.020888
      dxy     :     0.019894
 20 H s       :     0.895764  s :     0.895764
      pz      :     0.024519  p :     0.067809
      px      :     0.031358
      py      :     0.011932
 21 H s       :     0.884993  s :     0.884993
      pz      :     0.028102  p :     0.068837
      px      :     0.011300
      py      :     0.029435
 22 F s       :     3.713306  s :     3.713306
      pz      :     1.904922  p :     5.326692
      px      :     1.676869
      py      :     1.744901
      dz2     :     0.001926  d :     0.013556
      dxz     :     0.001759
      dyz     :     0.001188
      dx2y2   :     0.003004
      dxy     :     0.005680
 23 F s       :     3.713473  s :     3.713473
      pz      :     1.754297  p :     5.327116
      px      :     1.667531
      py      :     1.905288
      dz2     :     0.002123  d :     0.013520
      dxz     :     0.005616
      dyz     :     0.001105
      dx2y2   :     0.002863
      dxy     :     0.001813
 24 H s       :     0.890758  s :     0.890758
      pz      :     0.029013  p :     0.068905
      px      :     0.011497
      py      :     0.028395
 25 H s       :     0.909138  s :     0.909138
      pz      :     0.014508  p :     0.063306
      px      :     0.012878
      py      :     0.035920
 26 H s       :     0.909713  s :     0.909713
      pz      :     0.033927  p :     0.062907
      px      :     0.016370
      py      :     0.012610
 27 H s       :     0.897215  s :     0.897215
      pz      :     0.038139  p :     0.065145
      px      :     0.013890
      py      :     0.013116
 28 H s       :     0.886058  s :     0.886058
      pz      :     0.019028  p :     0.066455
      px      :     0.013387
      py      :     0.034040
 29 H s       :     0.896415  s :     0.896415
      pz      :     0.012467  p :     0.065237
      px      :     0.039254
      py      :     0.013515


                      *****************************
                      * MAYER POPULATION ANALYSIS *
                      *****************************

  NA   - Mulliken gross atomic population
  ZA   - Total nuclear charge
  QA   - Mulliken gross atomic charge
  VA   - Mayer's total valence
  BVA  - Mayer's bonded valence
  FA   - Mayer's free valence

  ATOM       NA         ZA         QA         VA         BVA        FA
  0 C      5.9437     6.0000     0.0563     3.9321     3.9321    -0.0000
  1 C      6.0675     6.0000    -0.0675     3.9846     3.9846     0.0000
  2 C      6.1315     6.0000    -0.1315     4.0549     4.0549     0.0000
  3 C      6.1272     6.0000    -0.1272     4.1180     4.1180     0.0000
  4 N      7.1237     7.0000    -0.1237     3.0018     3.0018     0.0000
  5 N      7.0783     7.0000    -0.0783     3.4445     3.4445    -0.0000
  6 H      0.8598     1.0000     0.1402     0.9926     0.9926    -0.0000
  7 C      5.9395     6.0000     0.0605     3.9426     3.9426     0.0000
  8 H      0.9640     1.0000     0.0360     0.9906     0.9906    -0.0000
  9 H      0.9659     1.0000     0.0341     0.9973     0.9973     0.0000
 10 H      0.9574     1.0000     0.0426     1.0114     1.0114     0.0000
 11 N      7.2167     7.0000    -0.2167     3.1580     3.1580    -0.0000
 12 H      0.8811     1.0000     0.1189     0.9952     0.9952    -0.0000
 13 C      5.8033     6.0000     0.1967     3.9727     3.9727     0.0000
 14 C      6.0909     6.0000    -0.0909     3.8330     3.8330     0.0000
 15 C      6.1126     6.0000    -0.1126     3.8426     3.8426    -0.0000
 16 C      5.7768     6.0000     0.2232     3.8760     3.8760    -0.0000
 17 C      5.7863     6.0000     0.2137     3.8673     3.8673    -0.0000
 18 C      6.0864     6.0000    -0.0864     3.8434     3.8434    -0.0000
 19 C      5.9965     6.0000     0.0035     3.8651     3.8651     0.0000
 20 H      0.9788     1.0000     0.0212     0.9962     0.9962    -0.0000
 21 H      0.9621     1.0000     0.0379     0.9964     0.9964    -0.0000
 22 F      9.1874     9.0000    -0.1874     1.1724     1.1724    -0.0000
 23 F      9.1885     9.0000    -0.1885     1.1720     1.1720    -0.0000
 24 H      0.9770     1.0000     0.0230     1.0052     1.0052     0.0000
 25 H      0.9687     1.0000     0.0313     0.9889     0.9889    -0.0000
 26 H      0.9759     1.0000     0.0241     0.9938     0.9938    -0.0000
 27 H      0.9491     1.0000     0.0509     0.9885     0.9885     0.0000
 28 H      0.9455     1.0000     0.0545     1.0086     1.0086     0.0000
 29 H      0.9578     1.0000     0.0422     0.9955     0.9955     0.0000

  Mayer bond orders larger than 0.100000
B(  0-C ,  1-C ) :   1.0926 B(  0-C , 27-H ) :   0.9522 B(  0-C , 28-H ) :   0.9445 
B(  0-C , 29-H ) :   0.9528 B(  1-C ,  2-C ) :   1.4990 B(  1-C ,  4-N ) :   0.1003 
B(  1-C ,  5-N ) :   1.2062 B(  2-C ,  3-C ) :   1.2782 B(  2-C , 11-N ) :   1.1230 
B(  3-C ,  4-N ) :   1.6537 B(  3-C ,  7-C ) :   1.0857 B(  4-N ,  5-N ) :   1.1549 
B(  5-N ,  6-H ) :   0.9479 B(  7-C ,  8-H ) :   0.9606 B(  7-C ,  9-H ) :   0.9565 
B(  7-C , 10-H ) :   0.9472 B( 11-N , 12-H ) :   0.9366 B( 11-N , 13-C ) :   1.0599 
B( 13-C , 14-C ) :   0.9940 B( 13-C , 25-H ) :   0.9548 B( 13-C , 26-H ) :   0.9476 
B( 14-C , 15-C ) :   1.3454 B( 14-C , 19-C ) :   1.4114 B( 15-C , 16-C ) :   1.3763 
B( 15-C , 18-C ) :   0.1016 B( 15-C , 24-H ) :   0.9932 B( 16-C , 17-C ) :   1.2926 
B( 16-C , 23-F ) :   1.1003 B( 17-C , 18-C ) :   1.3777 B( 17-C , 22-F ) :   1.1044 
B( 18-C , 19-C ) :   1.3625 B( 18-C , 21-H ) :   0.9902 B( 19-C , 20-H ) :   0.9925 


-------
TIMINGS
-------

Total SCF time: 0 days 0 hours 2 min 47 sec 

Total time                  ....     167.797 sec
Sum of individual times     ....     167.555 sec  ( 99.9%)

Fock matrix formation       ....     164.855 sec  ( 98.2%)
  XC integration            ....       5.471 sec  (  3.3% of F)
    Basis function eval.    ....       1.843 sec  ( 33.7% of XC)
    Density eval.           ....       1.077 sec  ( 19.7% of XC)
    XC-Functional eval.     ....       1.117 sec  ( 20.4% of XC)
    XC-Potential eval.      ....       1.274 sec  ( 23.3% of XC)
Diagonalization             ....       0.010 sec  (  0.0%)
Density matrix formation    ....       0.013 sec  (  0.0%)
Population analysis         ....       0.009 sec  (  0.0%)
Initial guess               ....       0.010 sec  (  0.0%)
Orbital Transformation      ....       0.000 sec  (  0.0%)
Orbital Orthonormalization  ....       0.007 sec  (  0.0%)
DIIS solution               ....       0.002 sec  (  0.0%)
SOSCF solution              ....       0.048 sec  (  0.0%)
Grid generation             ....       2.607 sec  (  1.6%)


-------------------------------------------------------------------------------
                          DFT DISPERSION CORRECTION                            
                                                                               
                              DFTD3 V3.1  Rev 1                                
                              USING zero damping                               
-------------------------------------------------------------------------------
The omegaB97X-D3 functional is recognized. Fit by Chai et al.
Active option DFTDOPT                   ...         3   

molecular C6(AA) [au] = 9511.290242 


            DFT-D V3
 parameters
 s6 scaling factor         :     1.0000 
 rs6 scaling factor        :     1.2810 
 s8 scaling factor         :     1.0000 
 rs8 scaling factor        :     1.0940 
 Damping factor alpha6     :    14.0000 
 Damping factor alpha8     :    16.0000 
 ad hoc parameters k1-k3   :    16.0000     1.3333    -4.0000 

 Edisp/kcal,au: -9.118737974161  -0.014531632395 
 E6   /kcal   :  -4.245236732 
 E8   /kcal   :  -4.873501242 
 % E8         :  53.444909327 

-------------------------   ----------------
Dispersion correction           -0.014531632
-------------------------   ----------------


-------------------------   --------------------
FINAL SINGLE POINT ENERGY      -828.198172639689
-------------------------   --------------------

                                *** OPTIMIZATION RUN DONE ***

                            ***************************************
                            *     ORCA property calculations      *
                            ***************************************

                                    ---------------------
                                    Active property flags
                                    ---------------------
   (+) Dipole Moment


------------------------------------------------------------------------------
                       ORCA ELECTRIC PROPERTIES CALCULATION
------------------------------------------------------------------------------

Dipole Moment Calculation                       ... on
Quadrupole Moment Calculation                   ... off
Polarizability Calculation                      ... off
GBWName                                         ... 043547407.gbw
Electron density file                           ... 043547407.scfp
The origin for moment calculation is the CENTER OF MASS  = ( 0.014388,  0.025639  0.072156)

-------------
DIPOLE MOMENT
-------------
                                X             Y             Z
Electronic contribution:     22.21103       5.35960       0.98839
Nuclear contribution   :    -23.29171      -6.16988      -1.62562
                        -----------------------------------------
Total Dipole Moment    :     -1.08068      -0.81028      -0.63723
                        -----------------------------------------
Magnitude (a.u.)       :      1.49348
Magnitude (Debye)      :      3.79612



--------------------
Rotational spectrum 
--------------------
 
Rotational constants in cm-1:     0.031068     0.009074     0.008384 
Rotational constants in MHz :   931.408987   272.028614   251.355908 

 Dipole components along the rotational axes: 
x,y,z [a.u.] :     1.131199    -0.752916    -0.619667 
x,y,z [Debye]:     2.875279    -1.913762    -1.575069 

 

Timings for individual modules:

Sum of individual times         ...     4101.534 sec (=  68.359 min)
GTO integral calculation        ...        3.810 sec (=   0.064 min)   0.1 %
SCF iterations                  ...     2676.474 sec (=  44.608 min)  65.3 %
SCF Gradient evaluation         ...     1419.524 sec (=  23.659 min)  34.6 %
Geometry relaxation             ...        1.725 sec (=   0.029 min)   0.0 %
                             ****ORCA TERMINATED NORMALLY****
TOTAL RUN TIME: 0 days 1 hours 8 minutes 23 seconds 447 msec
