
                                 *****************
                                 * O   R   C   A *
                                 *****************

           --- An Ab Initio, DFT and Semiempirical electronic structure package ---

                  #######################################################
                  #                        -***-                        #
                  #          Department of theory and spectroscopy      #
                  #               Directorship: Frank Neese             #
                  #        Max Planck Institute fuer Kohlenforschung    #
                  #                Kaiser Wilhelm Platz 1               #
                  #                 D-45470 Muelheim/Ruhr               #
                  #                      Germany                        #
                  #                                                     #
                  #                  All rights reserved                #
                  #                        -***-                        #
                  #######################################################


                         Program Version 4.2.0 -  RELEASE  -


 With contributions from (in alphabetic order):
   Daniel Aravena         : Magnetic Suceptibility
   Michael Atanasov       : Ab Initio Ligand Field Theory (pilot matlab implementation)
   Alexander A. Auer      : GIAO ZORA, VPT2
   Ute Becker             : Parallelization
   Giovanni Bistoni       : ED, misc. LED, open-shell LED, HFLED
   Martin Brehm           : Molecular dynamics
   Dmytro Bykov           : SCF Hessian
   Vijay G. Chilkuri      : MRCI spin determinant printing, contributions to CSF-ICE
   Dipayan Datta          : RHF DLPNO-CCSD density
   Achintya Kumar Dutta   : EOM-CC, STEOM-CC
   Dmitry Ganyushin       : Spin-Orbit,Spin-Spin,Magnetic field MRCI
   Miquel Garcia          : C-PCM Hessian, Gaussian charge scheme
   Yang Guo               : DLPNO-NEVPT2, CIM, IAO-localization
   Andreas Hansen         : Spin unrestricted coupled pair/coupled cluster methods
   Benjamin Helmich-Paris : CASSCF linear response (MC-RPA)
   Lee Huntington         : MR-EOM, pCC
   Robert Izsak           : Overlap fitted RIJCOSX, COSX-SCS-MP3, EOM
   Christian Kollmar      : KDIIS, OOCD, Brueckner-CCSD(T), CCSD density
   Simone Kossmann        : Meta GGA functionals, TD-DFT gradient, OOMP2, MP2 Hessian
   Martin Krupicka        : AUTO-CI
   Lucas Lang             : DCDCAS
   Dagmar Lenk            : GEPOL surface, SMD
   Dimitrios Liakos       : Extrapolation schemes; Compound Job, initial MDCI parallelization
   Dimitrios Manganas     : Further ROCIS development; embedding schemes
   Dimitrios Pantazis     : SARC Basis sets
   Taras Petrenko         : DFT Hessian,TD-DFT gradient, ASA, ECA, R-Raman, ABS, FL, XAS/XES, NRVS
   Peter Pinski           : DLPNO-MP2, DLPNO-MP2 Gradient
   Christoph Reimann      : Effective Core Potentials
   Marius Retegan         : Local ZFS, SOC
   Christoph Riplinger    : Optimizer, TS searches, QM/MM, DLPNO-CCSD(T), (RO)-DLPNO pert. Triples
   Tobias Risthaus        : Range-separated hybrids, TD-DFT gradient, RPA, STAB
   Michael Roemelt        : Original ROCIS implementation
   Masaaki Saitow         : Open-shell DLPNO-CCSD energy and density
   Barbara Sandhoefer     : DKH picture change effects
   Avijit Sen             : IP-ROCIS
   Kantharuban Sivalingam : CASSCF convergence, NEVPT2, FIC-MRCI
   Bernardo de Souza      : ESD, SOC TD-DFT
   Georgi Stoychev        : AutoAux, RI-MP2 NMR
   Willem Van den Heuvel  : Paramagnetic NMR
   Boris Wezisla          : Elementary symmetry handling
   Frank Wennmohs         : Technical directorship


 We gratefully acknowledge several colleagues who have allowed us to
 interface, adapt or use parts of their codes:
   Stefan Grimme, W. Hujo, H. Kruse,             : VdW corrections, initial TS optimization,
                  C. Bannwarth                     DFT functionals, gCP, sTDA/sTD-DF
   Ed Valeev, F. Pavosevic, A. Kumar             : LibInt (2-el integral package), F12 methods
   Garnet Chan, S. Sharma, J. Yang, R. Olivares  : DMRG
   Ulf Ekstrom                                   : XCFun DFT Library
   Mihaly Kallay                                 : mrcc  (arbitrary order and MRCC methods)
   Andreas Klamt, Michael Diedenhofen            : otool_cosmo (COSMO solvation model)
   Jiri Pittner, Ondrej Demel                    : Mk-CCSD
   Frank Weinhold                                : gennbo (NPA and NBO analysis)
   Christopher J. Cramer and Donald G. Truhlar   : smd solvation model
   Lars Goerigk                                  : TD-DFT with DH, B97 family of functionals
   V. Asgeirsson, H. Jonsson                     : NEB implementation
   FAccTs GmbH                                   : IRC, NEB, NEB-TS, Multilevel, MM, QM/MM, CI optimization
   S Lehtola, MJT Oliveira, MAL Marques          : LibXC Library


 Your calculation uses the libint2 library for the computation of 2-el integrals
 For citations please refer to: http://libint.valeyev.net

 Your ORCA version has been built with support for libXC version: 4.2.3
 For citations please refer to: https://tddft.org/programs/libxc/

 This ORCA versions uses:
   CBLAS   interface :  Fast vector & matrix operations
   LAPACKE interface :  Fast linear algebra routines
   SCALAPACK package :  Parallel linear algebra routines


Your calculation utilizes the atom-pairwise dispersion correction
with the zero-damping scheme (D30)
Cite in your paper:
S.Grimme, J.Antony, S.Ehrlich and H.Krieg, J.Chem.Phys., 132, (2010), 154104 
   

XCFun DFT library Copyright 2009-2010 Ulf Ekstrom and contributors.
See http://admol.org/xcfun for more information. This is free soft-
ware; see the source code for copying conditions. There is ABSOLUTELY
NO WARRANTY; not even for MERCHANTABILITY or FITNESS FOR A PARTICULAR
PURPOSE. For details see the documentation. Scientific users of this 
library should cite U. Ekstrom, L. Visscher, R. Bast, A. J. Thorvald-
sen and K. Ruud; J.Chem.Theor.Comp. 2010, DOI: 10.1021/ct100117s
XCFun Version 0.99 
----- Orbital basis set information -----
Your calculation utilizes the basis: def2-SVP
   F. Weigend and R. Ahlrichs, Phys. Chem. Chem. Phys. 7, 3297 (2005).

================================================================================
                                        WARNINGS
                       Please study these warnings very carefully!
================================================================================


WARNING: Geometry Optimization
  ===> : Switching off AutoStart
         For restart on a previous wavefunction, please use MOREAD

INFO   : the flag for use of LIBINT has been found!

================================================================================
                                       INPUT FILE
================================================================================
NAME = 053403366.inp
|  1> # ORCA input file
|  2> # -47.96059915
|  3> ! wB97X-D3 def2-SVP Opt
|  4> * xyz 0 1
|  5>    C       -4.42710        -0.52300        -0.01440
|  6>    C       -2.92990        -0.40290        -0.01270
|  7>    C       -2.13450        -1.53080        -0.08100
|  8>    C       -0.74770        -1.47530        -0.09250
|  9>    C       -0.13390        -0.22340         0.00970
| 10>    C       -0.91480         0.93400         0.08780
| 11>    C       -2.31110         0.85080         0.05080
| 12>    N       -3.07930         2.00470         0.15950
| 13>    H       -4.02850         1.91200        -0.16490
| 14>    H       -2.63200         2.84660        -0.16560
| 15>    C       -0.26360         2.28080         0.23250
| 16>    H       -0.34890         2.86320        -0.68710
| 17>    H       -0.73100         2.84040         1.04140
| 18>    H        0.78980         2.15030         0.45840
| 19>    N        1.27440        -0.02550         0.04080
| 20>    C        1.94210         0.16610        -1.22820
| 21>    H        1.30650         0.76380        -1.88320
| 22>    C        3.26350         0.89740        -0.97110
| 23>    H        3.85140         0.97410        -1.88760
| 24>    O        4.06870         0.20420        -0.04480
| 25>    C        3.38510         0.01100         1.17400
| 26>    H        4.07370        -0.52990         1.82550
| 27>    C        2.09450        -0.78550         0.95550
| 28>    H        1.56110        -0.90530         1.89950
| 29>    H        2.37820        -1.77680         0.56700
| 30>    H        3.14330         0.98560         1.62490
| 31>    H        3.04990         1.90850        -0.59050
| 32>    H        2.16170        -0.79330        -1.72990
| 33>    C        0.01790        -2.76120        -0.22810
| 34>    H       -0.64160        -3.54630        -0.59250
| 35>    H        0.84230        -2.65960        -0.93010
| 36>    H        0.42000        -3.08190         0.73330
| 37>    H       -2.61390        -2.49820        -0.14690
| 38>    H       -4.85950        -0.04050        -0.89340
| 39>    H       -4.85180        -0.05700         0.87460
| 40>    H       -4.72100        -1.56920        -0.02740
| 41> *
| 42> 
| 43>                          ****END OF INPUT****
================================================================================

                       *****************************
                       * Geometry Optimization Run *
                       *****************************

Geometry optimization settings:
Update method            Update   .... BFGS
Choice of coordinates    CoordSys .... Z-matrix Internals
Initial Hessian          InHess   .... Almoef's Model

Convergence Tolerances:
Energy Change            TolE     ....  5.0000e-06 Eh
Max. Gradient            TolMAXG  ....  3.0000e-04 Eh/bohr
RMS Gradient             TolRMSG  ....  1.0000e-04 Eh/bohr
Max. Displacement        TolMAXD  ....  4.0000e-03 bohr
RMS Displacement         TolRMSD  ....  2.0000e-03 bohr
Strict Convergence                ....  False
------------------------------------------------------------------------------
                        ORCA OPTIMIZATION COORDINATE SETUP
------------------------------------------------------------------------------

The optimization will be done in new redundant internal coordinates
Making redundant internal coordinates   ...  (new redundants) done
Evaluating the initial hessian          ...  (Almloef) done
Evaluating the coordinates              ...  done
Calculating the B-matrix                .... done
Calculating the G-matrix                .... done
Diagonalizing the G-matrix              .... done
Small eigenvalue found = 8.163e-03
Small eigenvalue found = 1.664e-02
Small eigenvalue found = 2.616e-02
The first mode is                       ....   88
The number of degrees of freedom        ....  102

    -----------------------------------------------------------------
                    Redundant Internal Coordinates


    -----------------------------------------------------------------
         Definition                    Initial Value    Approx d2E/dq
    -----------------------------------------------------------------
      1. B(C   1,C   0)                  1.5020         0.414031   
      2. B(C   2,C   1)                  1.3818         0.643807   
      3. B(C   3,C   2)                  1.3880         0.629502   
      4. B(C   4,C   3)                  1.3980         0.606666   
      5. B(C   5,C   4)                  1.3984         0.605845   
      6. B(C   6,C   5)                  1.3993         0.603887   
      7. B(C   6,C   1)                  1.3995         0.603281   
      8. B(N   7,C   6)                  1.3905         0.558613   
      9. B(H   8,N   7)                  1.0074         0.436897   
     10. B(H   9,N   7)                  1.0073         0.437093   
     11. B(C  10,C   5)                  1.5030         0.412599   
     12. B(H  11,C  10)                  1.0918         0.357665   
     13. B(H  12,C  10)                  1.0890         0.361417   
     14. B(H  13,C  10)                  1.0852         0.366473   
     15. B(N  14,C   4)                  1.4225         0.496662   
     16. B(C  15,N  14)                  1.4467         0.454401   
     17. B(H  16,C  15)                  1.0910         0.358794   
     18. B(C  17,C  15)                  1.5320         0.370852   
     19. B(H  18,C  17)                  1.0916         0.358055   
     20. B(O  19,C  17)                  1.4096         0.520766   
     21. B(C  20,O  19)                  1.4107         0.518598   
     22. B(H  21,C  20)                  1.0914         0.358228   
     23. B(C  22,C  20)                  1.5323         0.370494   
     24. B(C  22,N  14)                  1.4446         0.457911   
     25. B(H  23,C  22)                  1.0909         0.358947   
     26. B(H  24,C  22)                  1.1019         0.344749   
     27. B(H  25,C  20)                  1.1007         0.346172   
     28. B(H  26,C  17)                  1.1013         0.345490   
     29. B(H  27,C  15)                  1.1047         0.341162   
     30. B(C  28,C   3)                  1.5027         0.413003   
     31. B(H  29,C  28)                  1.0882         0.362532   
     32. B(H  30,C  28)                  1.0875         0.363358   
     33. B(H  31,C  28)                  1.0903         0.359662   
     34. B(H  32,C   2)                  1.0817         0.371277   
     35. B(H  33,C   0)                  1.0920         0.357492   
     36. B(H  34,C   0)                  1.0899         0.360254   
     37. B(H  35,C   0)                  1.0868         0.364391   
     38. A(H  33,C   0,H  34)          108.2622         0.290527   
     39. A(H  33,C   0,H  35)          107.9777         0.291049   
     40. A(C   1,C   0,H  33)          111.1180         0.329464   
     41. A(H  34,C   0,H  35)          108.4201         0.291401   
     42. A(C   1,C   0,H  35)          110.2767         0.330506   
     43. A(C   1,C   0,H  34)          110.6902         0.329883   
     44. A(C   0,C   1,C   2)          120.5603         0.406626   
     45. A(C   0,C   1,C   6)          120.8244         0.401986   
     46. A(C   2,C   1,C   6)          118.6145         0.434875   
     47. A(C   1,C   2,H  32)          118.5481         0.357017   
     48. A(C   3,C   2,H  32)          118.5606         0.355657   
     49. A(C   1,C   2,C   3)          122.8813         0.438222   
     50. A(C   2,C   3,C  28)          118.3979         0.404837   
     51. A(C   4,C   3,C  28)          123.3122         0.402206   
     52. A(C   2,C   3,C   4)          118.2869         0.433556   
     53. A(C   3,C   4,N  14)          124.1150         0.412872   
     54. A(C   3,C   4,C   5)          120.0045         0.430582   
     55. A(C   5,C   4,N  14)          115.8805         0.412773   
     56. A(C   6,C   5,C  10)          119.2217         0.401812   
     57. A(C   4,C   5,C   6)          120.4347         0.430227   
     58. A(C   4,C   5,C  10)          120.3378         0.402041   
     59. A(C   5,C   6,N   7)          119.9927         0.421259   
     60. A(C   1,C   6,N   7)          120.1759         0.421183   
     61. A(C   1,C   6,C   5)          119.7141         0.429900   
     62. A(C   6,N   7,H   8)          114.7732         0.352954   
     63. A(C   6,N   7,H   9)          115.0275         0.352981   
     64. A(H   8,N   7,H   9)          113.0423         0.304216   
     65. A(H  12,C  10,H  13)          108.8921         0.291810   
     66. A(H  11,C  10,H  13)          108.3788         0.291331   
     67. A(C   5,C  10,H  13)          109.4423         0.330628   
     68. A(H  11,C  10,H  12)          108.5407         0.290696   
     69. A(C   5,C  10,H  12)          110.2443         0.329870   
     70. A(C   5,C  10,H  11)          111.2876         0.329301   
     71. A(C   4,N  14,C  15)          117.1413         0.389869   
     72. A(C  15,N  14,C  22)          111.2895         0.384388   
     73. A(C   4,N  14,C  22)          120.1786         0.390393   
     74. A(H  16,C  15,C  17)          109.9831         0.323736   
     75. A(N  14,C  15,C  17)          108.3069         0.372957   
     76. A(N  14,C  15,H  16)          109.2872         0.332761   
     77. A(N  14,C  15,H  27)          112.0302         0.329996   
     78. A(H  16,C  15,H  27)          108.5990         0.288222   
     79. A(C  17,C  15,H  27)          108.6218         0.321074   
     80. A(H  18,C  17,O  19)          106.1800         0.340282   
     81. A(C  15,C  17,O  19)          111.6073         0.381855   
     82. A(C  15,C  17,H  18)          110.9277         0.323627   
     83. A(O  19,C  17,H  26)          109.5845         0.338258   
     84. A(H  18,C  17,H  26)          109.2765         0.288699   
     85. A(C  15,C  17,H  26)          109.2062         0.321737   
     86. A(C  17,O  19,C  20)          110.9953         0.402347   
     87. A(C  22,C  20,H  25)          109.4900         0.321790   
     88. A(H  21,C  20,H  25)          109.4433         0.288810   
     89. A(O  19,C  20,H  25)          109.8219         0.338134   
     90. A(H  21,C  20,C  22)          111.0339         0.323601   
     91. A(O  19,C  20,C  22)          110.8636         0.381514   
     92. A(O  19,C  20,H  21)          106.1328         0.340072   
     93. A(H  23,C  22,H  24)          109.4029         0.288714   
     94. A(C  20,C  22,H  24)          107.5222         0.321573   
     95. A(N  14,C  22,H  24)          113.3426         0.330989   
     96. A(C  20,C  22,H  23)          110.2146         0.323708   
     97. A(N  14,C  22,H  23)          109.1551         0.333209   
     98. A(N  14,C  22,C  20)          107.1566         0.373390   
     99. A(H  30,C  28,H  31)          108.4867         0.291196   
    100. A(H  29,C  28,H  31)          107.8528         0.291091   
    101. A(C   3,C  28,H  31)          111.1016         0.329658   
    102. A(H  29,C  28,H  30)          108.0992         0.291560   
    103. A(C   3,C  28,H  30)          111.3776         0.330215   
    104. A(C   3,C  28,H  29)          109.8061         0.330091   
    105. D(C   6,C   1,C   0,H  34)    -57.7425         0.012687   
    106. D(C   6,C   1,C   0,H  33)     62.5858         0.012687   
    107. D(C   6,C   1,C   0,H  35)   -177.7168         0.012687   
    108. D(C   2,C   1,C   0,H  35)      2.6222         0.012687   
    109. D(C   2,C   1,C   0,H  33)   -117.0751         0.012687   
    110. D(C   2,C   1,C   0,H  34)    122.5965         0.012687   
    111. D(H  32,C   2,C   1,C   6)   -178.9814         0.028821   
    112. D(H  32,C   2,C   1,C   0)      0.6870         0.028821   
    113. D(C   3,C   2,C   1,C   6)     -0.1511         0.028821   
    114. D(C   3,C   2,C   1,C   0)    179.5172         0.028821   
    115. D(C  28,C   3,C   2,C   1)   -177.4367         0.027473   
    116. D(C  28,C   3,C   2,H  32)      1.3934         0.027473   
    117. D(C   4,C   3,C   2,H  32)   -179.2181         0.027473   
    118. D(C   4,C   3,C   2,C   1)      1.9517         0.027473   
    119. D(C   5,C   4,C   3,C   2)     -1.5217         0.025403   
    120. D(N  14,C   4,C   3,C  28)     -2.1174         0.025403   
    121. D(C   5,C   4,C   3,C  28)    177.8345         0.025403   
    122. D(N  14,C   4,C   3,C   2)    178.5263         0.025403   
    123. D(C  10,C   5,C   4,N  14)     -1.5798         0.025330   
    124. D(C  10,C   5,C   4,C   3)    178.4644         0.025330   
    125. D(C   6,C   5,C   4,N  14)    179.3054         0.025330   
    126. D(C   6,C   5,C   4,C   3)     -0.6504         0.025330   
    127. D(N   7,C   6,C   5,C  10)     -0.5760         0.025158   
    128. D(C   1,C   6,C   5,C  10)   -176.6463         0.025158   
    129. D(C   1,C   6,C   5,C   4)      2.4783         0.025158   
    130. D(N   7,C   6,C   5,C   4)    178.5486         0.025158   
    131. D(N   7,C   6,C   1,C   2)   -178.1340         0.025105   
    132. D(N   7,C   6,C   1,C   0)      2.1986         0.025105   
    133. D(C   5,C   6,C   1,C   2)     -2.0709         0.025105   
    134. D(C   5,C   6,C   1,C   0)    178.2616         0.025105   
    135. D(H   8,N   7,C   6,C   1)    -22.6712         0.024914   
    136. D(H   9,N   7,C   6,C   5)     27.5499         0.024914   
    137. D(H   9,N   7,C   6,C   1)   -156.3981         0.024914   
    138. D(H   8,N   7,C   6,C   5)    161.2768         0.024914   
    139. D(H  13,C  10,C   5,C   6)    167.8291         0.012603   
    140. D(H  12,C  10,C   5,C   6)     48.0830         0.012603   
    141. D(H  11,C  10,C   5,C   6)    -72.4099         0.012603   
    142. D(H  12,C  10,C   5,C   4)   -131.0425         0.012603   
    143. D(H  11,C  10,C   5,C   4)    108.4646         0.012603   
    144. D(H  13,C  10,C   5,C   4)    -11.2964         0.012603   
    145. D(C  22,N  14,C   4,C   5)    129.7826         0.019493   
    146. D(C  22,N  14,C   4,C   3)    -50.2636         0.019493   
    147. D(C  15,N  14,C   4,C   5)    -89.8560         0.019493   
    148. D(C  15,N  14,C   4,C   3)     90.0978         0.019493   
    149. D(H  27,C  15,N  14,C  22)     61.0275         0.017619   
    150. D(H  27,C  15,N  14,C   4)    -82.6828         0.017619   
    151. D(C  17,C  15,N  14,C  22)    -58.7551         0.017619   
    152. D(C  17,C  15,N  14,C   4)    157.5346         0.017619   
    153. D(H  16,C  15,N  14,C  22)   -178.5664         0.017619   
    154. D(H  16,C  15,N  14,C   4)     37.7232         0.017619   
    155. D(H  26,C  17,C  15,H  16)     54.0579         0.010991   
    156. D(H  26,C  17,C  15,N  14)    -65.3162         0.010991   
    157. D(O  19,C  17,C  15,H  27)    -65.8978         0.010991   
    158. D(O  19,C  17,C  15,H  16)    175.3739         0.010991   
    159. D(O  19,C  17,C  15,N  14)     55.9998         0.010991   
    160. D(H  18,C  17,C  15,H  27)     52.2892         0.010991   
    161. D(H  18,C  17,C  15,H  16)    -66.4391         0.010991   
    162. D(H  26,C  17,C  15,H  27)    172.7862         0.010991   
    163. D(H  18,C  17,C  15,N  14)    174.1868         0.010991   
    164. D(C  20,O  19,C  17,H  26)     63.9027         0.021504   
    165. D(C  20,O  19,C  17,H  18)   -178.1877         0.021504   
    166. D(C  20,O  19,C  17,C  15)    -57.1934         0.021504   
    167. D(H  21,C  20,O  19,C  17)    179.8613         0.021318   
    168. D(H  25,C  20,O  19,C  17)    -61.9350         0.021318   
    169. D(C  22,C  20,O  19,C  17)     59.1910         0.021318   
    170. D(H  24,C  22,C  20,H  25)   -176.3199         0.010971   
    171. D(H  24,C  22,C  20,O  19)     62.3585         0.010971   
    172. D(H  23,C  22,C  20,H  25)    -57.1437         0.010971   
    173. D(H  23,C  22,C  20,H  21)     63.8145         0.010971   
    174. D(H  23,C  22,C  20,O  19)   -178.4654         0.010971   
    175. D(N  14,C  22,C  20,H  25)     61.5172         0.010971   
    176. D(N  14,C  22,C  20,H  21)   -177.5246         0.010971   
    177. D(N  14,C  22,C  20,O  19)    -59.8044         0.010971   
    178. D(H  24,C  22,N  14,C  15)    -58.0409         0.017896   
    179. D(H  24,C  22,N  14,C   4)     84.4221         0.017896   
    180. D(H  23,C  22,N  14,C  15)    179.7552         0.017896   
    181. D(H  23,C  22,N  14,C   4)    -37.7817         0.017896   
    182. D(H  24,C  22,C  20,H  21)    -55.3617         0.010971   
    183. D(C  20,C  22,N  14,C  15)     60.4106         0.017896   
    184. D(C  20,C  22,N  14,C   4)   -157.1264         0.017896   
    185. D(H  31,C  28,C   3,C   4)     78.1043         0.012627   
    186. D(H  31,C  28,C   3,C   2)   -102.5401         0.012627   
    187. D(H  30,C  28,C   3,C   4)    -42.9631         0.012627   
    188. D(H  30,C  28,C   3,C   2)    136.3925         0.012627   
    189. D(H  29,C  28,C   3,C   4)   -162.6703         0.012627   
    190. D(H  29,C  28,C   3,C   2)     16.6853         0.012627   
    -----------------------------------------------------------------

Number of atoms                         .... 36
Number of degrees of freedom            .... 190

         *************************************************************
         *                GEOMETRY OPTIMIZATION CYCLE   1            *
         *************************************************************
---------------------------------
CARTESIAN COORDINATES (ANGSTROEM)
---------------------------------
  C     -4.427100   -0.523000   -0.014400
  C     -2.929900   -0.402900   -0.012700
  C     -2.134500   -1.530800   -0.081000
  C     -0.747700   -1.475300   -0.092500
  C     -0.133900   -0.223400    0.009700
  C     -0.914800    0.934000    0.087800
  C     -2.311100    0.850800    0.050800
  N     -3.079300    2.004700    0.159500
  H     -4.028500    1.912000   -0.164900
  H     -2.632000    2.846600   -0.165600
  C     -0.263600    2.280800    0.232500
  H     -0.348900    2.863200   -0.687100
  H     -0.731000    2.840400    1.041400
  H      0.789800    2.150300    0.458400
  N      1.274400   -0.025500    0.040800
  C      1.942100    0.166100   -1.228200
  H      1.306500    0.763800   -1.883200
  C      3.263500    0.897400   -0.971100
  H      3.851400    0.974100   -1.887600
  O      4.068700    0.204200   -0.044800
  C      3.385100    0.011000    1.174000
  H      4.073700   -0.529900    1.825500
  C      2.094500   -0.785500    0.955500
  H      1.561100   -0.905300    1.899500
  H      2.378200   -1.776800    0.567000
  H      3.143300    0.985600    1.624900
  H      3.049900    1.908500   -0.590500
  H      2.161700   -0.793300   -1.729900
  C      0.017900   -2.761200   -0.228100
  H     -0.641600   -3.546300   -0.592500
  H      0.842300   -2.659600   -0.930100
  H      0.420000   -3.081900    0.733300
  H     -2.613900   -2.498200   -0.146900
  H     -4.859500   -0.040500   -0.893400
  H     -4.851800   -0.057000    0.874600
  H     -4.721000   -1.569200   -0.027400

----------------------------
CARTESIAN COORDINATES (A.U.)
----------------------------
  NO LB      ZA    FRAG     MASS         X           Y           Z
   0 C     6.0000    0    12.011   -8.366007   -0.988327   -0.027212
   1 C     6.0000    0    12.011   -5.536709   -0.761371   -0.024000
   2 C     6.0000    0    12.011   -4.033620   -2.892793   -0.153068
   3 C     6.0000    0    12.011   -1.412948   -2.787913   -0.174800
   4 C     6.0000    0    12.011   -0.253034   -0.422165    0.018330
   5 C     6.0000    0    12.011   -1.728721    1.765004    0.165918
   6 C     6.0000    0    12.011   -4.367346    1.607779    0.095998
   7 N     7.0000    0    14.007   -5.819034    3.788334    0.301411
   8 H     1.0000    0     1.008   -7.612762    3.613156   -0.311616
   9 H     1.0000    0     1.008   -4.973759    5.379294   -0.312939
  10 C     6.0000    0    12.011   -0.498132    4.310087    0.439361
  11 H     1.0000    0     1.008   -0.659325    5.410664   -1.298431
  12 H     1.0000    0     1.008   -1.381390    5.367578    1.967961
  13 H     1.0000    0     1.008    1.492506    4.063478    0.866250
  14 N     7.0000    0    14.007    2.408267   -0.048188    0.077101
  15 C     6.0000    0    12.011    3.670037    0.313884   -2.320962
  16 H     1.0000    0     1.008    2.468927    1.443373   -3.558732
  17 C     6.0000    0    12.011    6.167121    1.695840   -1.835113
  18 H     1.0000    0     1.008    7.278091    1.840782   -3.567047
  19 O     8.0000    0    15.999    7.688729    0.385882   -0.084660
  20 C     6.0000    0    12.011    6.396912    0.020787    2.218538
  21 H     1.0000    0     1.008    7.698177   -1.001366    3.449695
  22 C     6.0000    0    12.011    3.958031   -1.484380    1.805633
  23 H     1.0000    0     1.008    2.950051   -1.710769    3.589535
  24 H     1.0000    0     1.008    4.494147   -3.357665    1.071475
  25 H     1.0000    0     1.008    5.939976    1.862514    3.070616
  26 H     1.0000    0     1.008    5.763476    3.606542   -1.115883
  27 H     1.0000    0     1.008    4.085021   -1.499120   -3.269037
  28 C     6.0000    0    12.011    0.033826   -5.217912   -0.431047
  29 H     1.0000    0     1.008   -1.212448   -6.701536   -1.119663
  30 H     1.0000    0     1.008    1.591716   -5.025916   -1.757634
  31 H     1.0000    0     1.008    0.793685   -5.823947    1.385736
  32 H     1.0000    0     1.008   -4.939555   -4.720914   -0.277601
  33 H     1.0000    0     1.008   -9.183124   -0.076534   -1.688281
  34 H     1.0000    0     1.008   -9.168573   -0.107714    1.652754
  35 H     1.0000    0     1.008   -8.921397   -2.965358   -0.051778

--------------------------------
INTERNAL COORDINATES (ANGSTROEM)
--------------------------------
 C      0   0   0     0.000000000000     0.00000000     0.00000000
 C      1   0   0     1.502010232988     0.00000000     0.00000000
 C      2   1   0     1.381840967695   120.56025653     0.00000000
 C      3   2   1     1.387957758723   122.88126569   179.51724146
 C      4   3   2     1.398016054986   118.28686405     1.95172890
 C      5   4   3     1.398384489330   120.00448334   358.47826551
 C      6   5   4     1.399265853939   120.43474031   359.34957132
 N      7   6   5     1.390479104482   119.99273414   178.54860094
 H      8   7   6     1.007377431750   114.77316840   161.27679344
 H      8   7   6     1.007255136497   115.02748746    27.54994116
 C      6   5   4     1.502953681921   120.33777113   178.46436498
 H     11   6   5     1.091847063466   111.28760308   108.46463833
 H     11   6   5     1.089006028450   110.24431274   228.95749456
 H     11   6   5     1.085224686413   109.44229506   348.70361564
 N      5   4   3     1.422476892607   124.11502317   178.52630649
 C     15   5   4     1.446684087837   117.14127045    90.09780384
 H     16  15   5     1.090989298756   109.28722149    37.72324901
 C     16  15   5     1.531991533919   108.30686289   157.53455359
 H     18  16  15     1.091550067564   110.92773392   174.18677763
 O     18  16  15     1.409576166796   111.60730728    55.99977009
 C     20  18  16     1.410712103868   110.99534232   302.80659455
 H     21  20  18     1.091418810540   106.13284450   179.86131703
 C     15   5   4     1.444589941817   120.17859437   309.73637385
 H     23  15   5     1.090872861520   109.15512927   322.21825573
 H     23  15   5     1.101859169767   113.34256659    84.42212115
 H     21  20  18     1.100737575447   109.82189861   298.06499321
 H     18  16  15     1.101274048546   109.20624816   294.68378646
 H     16  15   5     1.104706028770   112.03022774   277.31715590
 C      4   3   2     1.502687435896   118.39789083   182.56327612
 H     29   4   3     1.088168010925   109.80608077    16.68532957
 H     29   4   3     1.087548582823   111.37763894   136.39253790
 H     29   4   3     1.090331536736   111.10155103   257.45986870
 H      3   2   1     1.081679217698   118.54813669     0.68695987
 H      1   2   3     1.091978484220   111.11804645   242.92485191
 H      1   2   3     1.089883980064   110.69022178   122.59651439
 H      1   2   3     1.086775344770   110.27673072     2.62223034

---------------------------
INTERNAL COORDINATES (A.U.)
---------------------------
 C      0   0   0     0.000000000000     0.00000000     0.00000000
 C      1   0   0     2.838387990694     0.00000000     0.00000000
 C      2   1   0     2.611300989576   120.56025653     0.00000000
 C      3   2   1     2.622860049438   122.88126569   179.51724146
 C      4   3   2     2.641867474749   118.28686405     1.95172890
 C      5   4   3     2.642563714758   120.00448334   358.47826551
 C      6   5   4     2.644229252492   120.43474031   359.34957132
 N      7   6   5     2.627624702410   119.99273414   178.54860094
 H      8   7   6     1.903667459501   114.77316840   161.27679344
 H      8   7   6     1.903436354965   115.02748746    27.54994116
 C      6   5   4     2.840170850799   120.33777113   178.46436498
 H     11   6   5     2.063291930077   111.28760308   108.46463833
 H     11   6   5     2.057923151959   110.24431274   228.95749456
 H     11   6   5     2.050777451091   109.44229506   348.70361564
 N      5   4   3     2.688091758858   124.11502317   178.52630649
 C     15   5   4     2.733836728313   117.14127045    90.09780384
 H     16  15   5     2.061670989688   109.28722149    37.72324901
 C     16  15   5     2.895044438593   108.30686289   157.53455359
 H     18  16  15     2.062730689160   110.92773392   174.18677763
 O     18  16  15     2.663712920147   111.60730728    55.99977009
 C     20  18  16     2.665859530119   110.99534232   302.80659455
 H     21  20  18     2.062482649330   106.13284450   179.86131703
 C     15   5   4     2.729879365852   120.17859437   309.73637385
 H     23  15   5     2.061450955199   109.15512927   322.21825573
 H     23  15   5     2.082212069010   113.34256659    84.42212115
 H     21  20  18     2.080092562911   109.82189861   298.06499321
 H     18  16  15     2.081106350146   109.20624816   294.68378646
 H     16  15   5     2.087591852866   112.03022774   277.31715590
 C      4   3   2     2.839667718728   118.39789083   182.56327612
 H     29   4   3     2.056339528342   109.80608077    16.68532957
 H     29   4   3     2.055168978869   111.37763894   136.39253790
 H     29   4   3     2.060427999608   111.10155103   257.45986870
 H      3   2   1     2.044077486204   118.54813669     0.68695987
 H      1   2   3     2.063540279311   111.11804645   242.92485191
 H      1   2   3     2.059582240069   110.69022178   122.59651439
 H      1   2   3     2.053707770713   110.27673072     2.62223034

---------------------
BASIS SET INFORMATION
---------------------
There are 4 groups of distinct atoms

 Group   1 Type C   : 7s4p1d contracted to 3s2p1d pattern {511/31/1}
 Group   2 Type N   : 7s4p1d contracted to 3s2p1d pattern {511/31/1}
 Group   3 Type H   : 4s1p contracted to 2s1p pattern {31/1}
 Group   4 Type O   : 7s4p1d contracted to 3s2p1d pattern {511/31/1}

Atom   0C    basis set group =>   1
Atom   1C    basis set group =>   1
Atom   2C    basis set group =>   1
Atom   3C    basis set group =>   1
Atom   4C    basis set group =>   1
Atom   5C    basis set group =>   1
Atom   6C    basis set group =>   1
Atom   7N    basis set group =>   2
Atom   8H    basis set group =>   3
Atom   9H    basis set group =>   3
Atom  10C    basis set group =>   1
Atom  11H    basis set group =>   3
Atom  12H    basis set group =>   3
Atom  13H    basis set group =>   3
Atom  14N    basis set group =>   2
Atom  15C    basis set group =>   1
Atom  16H    basis set group =>   3
Atom  17C    basis set group =>   1
Atom  18H    basis set group =>   3
Atom  19O    basis set group =>   4
Atom  20C    basis set group =>   1
Atom  21H    basis set group =>   3
Atom  22C    basis set group =>   1
Atom  23H    basis set group =>   3
Atom  24H    basis set group =>   3
Atom  25H    basis set group =>   3
Atom  26H    basis set group =>   3
Atom  27H    basis set group =>   3
Atom  28C    basis set group =>   1
Atom  29H    basis set group =>   3
Atom  30H    basis set group =>   3
Atom  31H    basis set group =>   3
Atom  32H    basis set group =>   3
Atom  33H    basis set group =>   3
Atom  34H    basis set group =>   3
Atom  35H    basis set group =>   3
------------------------------------------------------------------------------
                           ORCA GTO INTEGRAL CALCULATION
------------------------------------------------------------------------------

                         BASIS SET STATISTICS AND STARTUP INFO

 # of primitive gaussian shells          ...  292
 # of primitive gaussian functions       ...  524
 # of contracted shells                  ...  156
 # of contracted basis functions         ...  324
 Highest angular momentum                ...    2
 Maximum contraction depth               ...    5
 Integral package used                   ... LIBINT
 Integral threshhold            Thresh   ...  2.500e-11
 Primitive cut-off              TCut     ...  2.500e-12


------------------------------ INTEGRAL EVALUATION ----------------------------


 * One electron integrals 
 Pre-screening matrix                    ... done
 Shell pair data                         ... done (   0.003 sec)

-------------------------------------------------------------------------------
                                 ORCA SCF
-------------------------------------------------------------------------------

------------
SCF SETTINGS
------------
Hamiltonian:
 Density Functional     Method          .... DFT(GTOs)
 Exchange Functional    Exchange        .... WB97X-D3
 Correlation Functional Correlation     .... WB97X-D3
 Gradients option       PostSCFGGA      .... off
 Hybrid DFT is turned on
   Fraction HF Exchange ScalHFX         ....  0.195728
   Scaling of DF-GGA-X  ScalDFX         ....  0.000000
   Scaling of DF-GGA-C  ScalDFC         ....  1.000000
   Scaling of DF-LDA-C  ScalLDAC        ....  1.000000
   Perturbative correction              ....  0.000000
   Density functional embedding theory  .... OFF
 Long-range corrected/Screened/Range-Separated Hybrid DFT is turned on
   Amount of maximum screened exact exchange              ....  0.804272
   Range separation parameter mu (erf(mu*r12)/r12)        ....  0.250000


General Settings:
 Integral files         IntName         .... 053403366
 Hartree-Fock type      HFTyp           .... RHF
 Total Charge           Charge          ....    0
 Multiplicity           Mult            ....    1
 Number of Electrons    NEL             ....  120
 Basis Dimension        Dim             ....  324
 Nuclear Repulsion      ENuc            ....   1163.9704824699 Eh

Convergence Acceleration:
 DIIS                   CNVDIIS         .... on
   Start iteration      DIISMaxIt       ....    12
   Startup error        DIISStart       ....  0.200000
   # of expansion vecs  DIISMaxEq       ....     5
   Bias factor          DIISBfac        ....   1.050
   Max. coefficient     DIISMaxC        ....  10.000
 Newton-Raphson         CNVNR           .... off
 SOSCF                  CNVSOSCF        .... on
   Start iteration      SOSCFMaxIt      ....   150
   Startup grad/error   SOSCFStart      ....  0.003300
 Level Shifting         CNVShift        .... on
   Level shift para.    LevelShift      ....    0.2500
   Turn off err/grad.   ShiftErr        ....    0.0010
 Zerner damping         CNVZerner       .... off
 Static damping         CNVDamp         .... on
   Fraction old density DampFac         ....    0.7000
   Max. Damping (<1)    DampMax         ....    0.9800
   Min. Damping (>=0)   DampMin         ....    0.0000
   Turn off err/grad.   DampErr         ....    0.1000
 Fernandez-Rico         CNVRico         .... off

SCF Procedure:
 Maximum # iterations   MaxIter         ....   125
 SCF integral mode      SCFMode         .... Direct
   Integral package                     .... LIBINT
 Reset frequency        DirectResetFreq ....    20
 Integral Threshold     Thresh          ....  2.500e-11 Eh
 Primitive CutOff       TCut            ....  2.500e-12 Eh

Convergence Tolerance:
 Convergence Check Mode ConvCheckMode   .... Total+1el-Energy
 Convergence forced     ConvForced      .... 0
 Energy Change          TolE            ....  1.000e-08 Eh
 1-El. energy change                    ....  1.000e-05 Eh
 Orbital Gradient       TolG            ....  1.000e-05
 Orbital Rotation angle TolX            ....  1.000e-05
 DIIS Error             TolErr          ....  5.000e-07


Diagonalization of the overlap matrix:
Smallest eigenvalue                        ... 1.442e-04
Time for diagonalization                   ...    0.013 sec
Threshold for overlap eigenvalues          ... 1.000e-08
Number of eigenvalues below threshold      ... 0
Time for construction of square roots      ...    0.006 sec
Total time needed                          ...    0.019 sec

-------------------
DFT GRID GENERATION
-------------------

General Integration Accuracy     IntAcc      ...  4.340
Radial Grid Type                 RadialGrid  ... Gauss-Chebyshev
Angular Grid (max. acc.)         AngularGrid ... Lebedev-110
Angular grid pruning method      GridPruning ... 3 (G Style)
Weight generation scheme         WeightScheme... Becke
Basis function cutoff            BFCut       ...    1.0000e-11
Integration weight cutoff        WCut        ...    1.0000e-14
Grids for H and He will be reduced by one unit

# of grid points (after initial pruning)     ...  42528 (   0.0 sec)
# of grid points (after weights+screening)   ...  37654 (   0.3 sec)
nearest neighbour list constructed           ...    0.0 sec
Grid point re-assignment to atoms done       ...    0.0 sec
Grid point division into batches done        ...    0.0 sec
Reduced shell lists constructed in    0.4 sec

Total number of grid points                  ...    37654
Total number of batches                      ...      607
Average number of points per batch           ...       62
Average number of grid points per atom       ...     1046
Average number of shells per batch           ...    90.63 (58.09%)
Average number of basis functions per batch  ...   177.47 (54.77%)
Average number of large shells per batch     ...    62.93 (69.43%)
Average number of large basis fcns per batch ...   122.98 (69.30%)
Maximum spatial batch extension              ...  20.87, 21.04, 25.60 au
Average spatial batch extension              ...   3.20,  3.41,  3.52 au

Time for grid setup =    0.676 sec

------------------------------
INITIAL GUESS: MODEL POTENTIAL
------------------------------
Loading Hartree-Fock densities                     ... done
Calculating cut-offs                               ... done
Setting up the integral package                    ... done
Initializing the effective Hamiltonian             ... done
Starting the Coulomb interaction                   ... done (   0.6 sec)
Reading the grid                                   ... done
Mapping shells                                     ... done
Starting the XC term evaluation                    ... done (   0.6 sec)
  promolecular density results
     # of electrons  =    119.977142213
     EX              =    -93.752949618
     EC              =     -4.025870301
     EX+EC           =    -97.778819920
Transforming the Hamiltonian                       ... done (   0.0 sec)
Diagonalizing the Hamiltonian                      ... done (   0.0 sec)
Back transforming the eigenvectors                 ... done (   0.0 sec)
Now organizing SCF variables                       ... done
                      ------------------
                      INITIAL GUESS DONE (   1.9 sec)
                      ------------------
--------------
SCF ITERATIONS
--------------
ITER       Energy         Delta-E        Max-DP      RMS-DP      [F,P]     Damp
               ***  Starting incremental Fock matrix formation  ***
  0   -691.0977968656   0.000000000000 0.06763350  0.00151142  0.2056060 0.7000
  1   -691.2390910218  -0.141294156240 0.04322288  0.00108528  0.1156414 0.7000
                               ***Turning on DIIS***
  2   -691.3148147932  -0.075723771327 0.07726249  0.00219784  0.0547823 0.0000
  3   -691.4402889462  -0.125474153048 0.03416296  0.00066293  0.0476764 0.0000
  4   -691.4564907652  -0.016201819029 0.00565658  0.00016858  0.0049799 0.0000
  5   -691.4568838088  -0.000393043553 0.00255054  0.00006658  0.0040042 0.0000
                      *** Initiating the SOSCF procedure ***
                           *** Shutting down DIIS ***
                      *** Re-Reading the Fockian *** 
                      *** Removing any level shift *** 
ITER      Energy       Delta-E        Grad      Rot      Max-DP    RMS-DP
  6   -691.45694303  -0.0000592174  0.000316  0.000316  0.001133  0.000040
               *** Restarting incremental Fock matrix formation ***
  7   -691.45695150  -0.0000084741  0.000114  0.000310  0.000595  0.000011
  8   -691.45695207  -0.0000005695  0.000105  0.000160  0.000293  0.000005
  9   -691.45695275  -0.0000006799  0.000026  0.000095  0.000065  0.000002
 10   -691.45695278  -0.0000000256  0.000010  0.000049  0.000039  0.000001
 11   -691.45695278  -0.0000000024  0.000004  0.000005  0.000012  0.000000
                  ***Gradient check signals convergence***
              ***Rediagonalizing the Fockian in SOSCF/NRSCF***

               *****************************************************
               *                     SUCCESS                       *
               *           SCF CONVERGED AFTER  12 CYCLES          *
               *****************************************************

Setting up the final grid:

General Integration Accuracy     IntAcc      ...  4.670
Radial Grid Type                 RadialGrid  ... Gauss-Chebyshev
Angular Grid (max. acc.)         AngularGrid ... Lebedev-302
Angular grid pruning method      GridPruning ... 3 (G Style)
Weight generation scheme         WeightScheme... Becke
Basis function cutoff            BFCut       ...    1.0000e-11
Integration weight cutoff        WCut        ...    1.0000e-14
Grids for H and He will be reduced by one unit

# of grid points (after initial pruning)     ... 167272 (   0.1 sec)
# of grid points (after weights+screening)   ... 144903 (   1.1 sec)
nearest neighbour list constructed           ...    0.0 sec
Grid point re-assignment to atoms done       ...    0.0 sec
Grid point division into batches done        ...    0.4 sec
Reduced shell lists constructed in    1.7 sec

Total number of grid points                  ...   144903
Total number of batches                      ...     2283
Average number of points per batch           ...       63
Average number of grid points per atom       ...     4025
Average number of shells per batch           ...    83.08 (53.26%)
Average number of basis functions per batch  ...   161.24 (49.77%)
Average number of large shells per batch     ...    56.39 (67.87%)
Average number of large basis fcns per batch ...   109.00 (67.60%)
Maximum spatial batch extension              ...  16.58, 20.41, 21.27 au
Average spatial batch extension              ...   2.08,  2.18,  2.25 au

Final grid set up in    2.8 sec
Final integration                            ... done (   2.8 sec)
Change in XC energy                          ...     0.002680734
Integrated number of electrons               ...   119.999557639
Previous integrated no of electrons          ...   119.997172129

----------------
TOTAL SCF ENERGY
----------------

Total Energy       :         -691.45427205 Eh          -18815.42730 eV

Components:
Nuclear Repulsion  :         1163.97048247 Eh           31673.24706 eV
Electronic Energy  :        -1855.42475452 Eh          -50488.67437 eV
One Electron Energy:        -3247.92968153 Eh          -88380.65982 eV
Two Electron Energy:         1392.50492701 Eh           37891.98546 eV

Virial components:
Potential Energy   :        -1375.62682025 Eh          -37432.70882 eV
Kinetic Energy     :          684.17254820 Eh           18617.28152 eV
Virial Ratio       :            2.01064311


DFT components:
N(Alpha)           :       59.999778819528 electrons
N(Beta)            :       59.999778819528 electrons
N(Total)           :      119.999557639056 electrons
E(XC)              :      -68.739401912869 Eh       
DFET-embed. en.    :        0.000000000000 Eh       

---------------
SCF CONVERGENCE
---------------

  Last Energy change         ...   -3.0589e-09  Tolerance :   1.0000e-08
  Last MAX-Density change    ...    4.9358e-06  Tolerance :   1.0000e-07
  Last RMS-Density change    ...    1.1441e-07  Tolerance :   5.0000e-09
  Last Orbital Gradient      ...    1.2244e-06  Tolerance :   1.0000e-05
  Last Orbital Rotation      ...    3.0244e-06  Tolerance :   1.0000e-05

             **** THE GBW FILE WAS UPDATED (053403366.gbw) ****
             **** DENSITY FILE WAS UPDATED (053403366.scfp) ****
             **** ENERGY FILE WAS UPDATED (053403366.en.tmp) ****
             **** THE GBW FILE WAS UPDATED (053403366.gbw) ****
             **** DENSITY FILE WAS UPDATED (053403366.scfp) ****
----------------
ORBITAL ENERGIES
----------------

  NO   OCC          E(Eh)            E(eV) 
   0   2.0000     -19.234238      -523.3902 
   1   2.0000     -14.430412      -392.6715 
   2   2.0000     -14.419688      -392.3796 
   3   2.0000     -10.325812      -280.9796 
   4   2.0000     -10.324532      -280.9448 
   5   2.0000     -10.312894      -280.6281 
   6   2.0000     -10.309869      -280.5458 
   7   2.0000     -10.306756      -280.4611 
   8   2.0000     -10.304555      -280.4012 
   9   2.0000     -10.283768      -279.8355 
  10   2.0000     -10.278272      -279.6860 
  11   2.0000     -10.276219      -279.6301 
  12   2.0000     -10.276092      -279.6267 
  13   2.0000     -10.274962      -279.5959 
  14   2.0000     -10.273180      -279.5474 
  15   2.0000     -10.271531      -279.5026 
  16   2.0000      -1.144093       -31.1323 
  17   2.0000      -1.043672       -28.3998 
  18   2.0000      -1.025048       -27.8930 
  19   2.0000      -0.944874       -25.7113 
  20   2.0000      -0.889172       -24.1956 
  21   2.0000      -0.879479       -23.9319 
  22   2.0000      -0.871644       -23.7186 
  23   2.0000      -0.813903       -22.1474 
  24   2.0000      -0.806147       -21.9364 
  25   2.0000      -0.772356       -21.0169 
  26   2.0000      -0.758464       -20.6388 
  27   2.0000      -0.748826       -20.3766 
  28   2.0000      -0.687534       -18.7088 
  29   2.0000      -0.676477       -18.4079 
  30   2.0000      -0.660271       -17.9669 
  31   2.0000      -0.632850       -17.2207 
  32   2.0000      -0.622321       -16.9342 
  33   2.0000      -0.573755       -15.6127 
  34   2.0000      -0.572003       -15.5650 
  35   2.0000      -0.565562       -15.3897 
  36   2.0000      -0.564269       -15.3545 
  37   2.0000      -0.554287       -15.0829 
  38   2.0000      -0.535269       -14.5654 
  39   2.0000      -0.528679       -14.3861 
  40   2.0000      -0.519233       -14.1290 
  41   2.0000      -0.513044       -13.9606 
  42   2.0000      -0.512117       -13.9354 
  43   2.0000      -0.508899       -13.8478 
  44   2.0000      -0.496326       -13.5057 
  45   2.0000      -0.492607       -13.4045 
  46   2.0000      -0.486809       -13.2467 
  47   2.0000      -0.482543       -13.1307 
  48   2.0000      -0.457546       -12.4505 
  49   2.0000      -0.451886       -12.2964 
  50   2.0000      -0.446232       -12.1426 
  51   2.0000      -0.443482       -12.0677 
  52   2.0000      -0.428934       -11.6719 
  53   2.0000      -0.426039       -11.5931 
  54   2.0000      -0.398771       -10.8511 
  55   2.0000      -0.392630       -10.6840 
  56   2.0000      -0.353098        -9.6083 
  57   2.0000      -0.320425        -8.7192 
  58   2.0000      -0.291168        -7.9231 
  59   2.0000      -0.272516        -7.4155 
  60   0.0000       0.084786         2.3071 
  61   0.0000       0.096205         2.6179 
  62   0.0000       0.134548         3.6612 
  63   0.0000       0.147986         4.0269 
  64   0.0000       0.153142         4.1672 
  65   0.0000       0.170713         4.6453 
  66   0.0000       0.177234         4.8228 
  67   0.0000       0.182342         4.9618 
  68   0.0000       0.197056         5.3622 
  69   0.0000       0.204970         5.5775 
  70   0.0000       0.206621         5.6224 
  71   0.0000       0.211410         5.7527 
  72   0.0000       0.217983         5.9316 
  73   0.0000       0.220134         5.9901 
  74   0.0000       0.225325         6.1314 
  75   0.0000       0.228142         6.2081 
  76   0.0000       0.235748         6.4150 
  77   0.0000       0.245328         6.6757 
  78   0.0000       0.252523         6.8715 
  79   0.0000       0.255246         6.9456 
  80   0.0000       0.264515         7.1978 
  81   0.0000       0.270544         7.3619 
  82   0.0000       0.283298         7.7089 
  83   0.0000       0.292562         7.9610 
  84   0.0000       0.305916         8.3244 
  85   0.0000       0.313390         8.5278 
  86   0.0000       0.328705         8.9445 
  87   0.0000       0.331115         9.0101 
  88   0.0000       0.340938         9.2774 
  89   0.0000       0.347991         9.4693 
  90   0.0000       0.359063         9.7706 
  91   0.0000       0.372523        10.1369 
  92   0.0000       0.383330        10.4309 
  93   0.0000       0.389027        10.5860 
  94   0.0000       0.419388        11.4121 
  95   0.0000       0.429395        11.6844 
  96   0.0000       0.433615        11.7993 
  97   0.0000       0.447772        12.1845 
  98   0.0000       0.465853        12.6765 
  99   0.0000       0.499443        13.5905 
 100   0.0000       0.521568        14.1926 
 101   0.0000       0.523132        14.2352 
 102   0.0000       0.526918        14.3382 
 103   0.0000       0.533743        14.5239 
 104   0.0000       0.543677        14.7942 
 105   0.0000       0.559717        15.2307 
 106   0.0000       0.561736        15.2856 
 107   0.0000       0.573629        15.6093 
 108   0.0000       0.584717        15.9109 
 109   0.0000       0.587783        15.9944 
 110   0.0000       0.604181        16.4406 
 111   0.0000       0.610276        16.6064 
 112   0.0000       0.618298        16.8247 
 113   0.0000       0.624198        16.9853 
 114   0.0000       0.626241        17.0409 
 115   0.0000       0.639857        17.4114 
 116   0.0000       0.655585        17.8394 
 117   0.0000       0.677755        18.4427 
 118   0.0000       0.695093        18.9144 
 119   0.0000       0.702041        19.1035 
 120   0.0000       0.707508        19.2523 
 121   0.0000       0.714890        19.4531 
 122   0.0000       0.722973        19.6731 
 123   0.0000       0.728135        19.8136 
 124   0.0000       0.735208        20.0060 
 125   0.0000       0.742311        20.1993 
 126   0.0000       0.744821        20.2676 
 127   0.0000       0.749688        20.4000 
 128   0.0000       0.750725        20.4283 
 129   0.0000       0.758784        20.6476 
 130   0.0000       0.759484        20.6666 
 131   0.0000       0.764175        20.7943 
 132   0.0000       0.767122        20.8744 
 133   0.0000       0.770415        20.9641 
 134   0.0000       0.775017        21.0893 
 135   0.0000       0.779625        21.2147 
 136   0.0000       0.786873        21.4119 
 137   0.0000       0.788453        21.4549 
 138   0.0000       0.792500        21.5650 
 139   0.0000       0.799054        21.7434 
 140   0.0000       0.806321        21.9411 
 141   0.0000       0.809769        22.0349 
 142   0.0000       0.816456        22.2169 
 143   0.0000       0.819221        22.2921 
 144   0.0000       0.827997        22.5309 
 145   0.0000       0.835885        22.7456 
 146   0.0000       0.845993        23.0206 
 147   0.0000       0.852576        23.1998 
 148   0.0000       0.855491        23.2791 
 149   0.0000       0.869481        23.6598 
 150   0.0000       0.873083        23.7578 
 151   0.0000       0.886227        24.1155 
 152   0.0000       0.899913        24.4879 
 153   0.0000       0.907018        24.6812 
 154   0.0000       0.919809        25.0293 
 155   0.0000       0.928903        25.2767 
 156   0.0000       0.930188        25.3117 
 157   0.0000       0.944470        25.7003 
 158   0.0000       0.949933        25.8490 
 159   0.0000       0.972748        26.4698 
 160   0.0000       0.999182        27.1891 
 161   0.0000       1.024979        27.8911 
 162   0.0000       1.031005        28.0551 
 163   0.0000       1.062438        28.9104 
 164   0.0000       1.081428        29.4272 
 165   0.0000       1.102141        29.9908 
 166   0.0000       1.123098        30.5611 
 167   0.0000       1.127929        30.6925 
 168   0.0000       1.171791        31.8860 
 169   0.0000       1.195785        32.5390 
 170   0.0000       1.218489        33.1568 
 171   0.0000       1.243318        33.8324 
 172   0.0000       1.252495        34.0821 
 173   0.0000       1.261173        34.3183 
 174   0.0000       1.280945        34.8563 
 175   0.0000       1.295393        35.2494 
 176   0.0000       1.304753        35.5041 
 177   0.0000       1.319287        35.8996 
 178   0.0000       1.333706        36.2920 
 179   0.0000       1.339182        36.4410 
 180   0.0000       1.353819        36.8393 
 181   0.0000       1.359206        36.9859 
 182   0.0000       1.378546        37.5121 
 183   0.0000       1.389428        37.8082 
 184   0.0000       1.412498        38.4360 
 185   0.0000       1.420059        38.6418 
 186   0.0000       1.433972        39.0204 
 187   0.0000       1.484560        40.3969 
 188   0.0000       1.489421        40.5292 
 189   0.0000       1.548495        42.1367 
 190   0.0000       1.557575        42.3838 
 191   0.0000       1.576712        42.9045 
 192   0.0000       1.595978        43.4288 
 193   0.0000       1.604843        43.6700 
 194   0.0000       1.616162        43.9780 
 195   0.0000       1.633587        44.4522 
 196   0.0000       1.638558        44.5874 
 197   0.0000       1.644904        44.7601 
 198   0.0000       1.660904        45.1955 
 199   0.0000       1.665016        45.3074 
 200   0.0000       1.669331        45.4248 
 201   0.0000       1.674334        45.5609 
 202   0.0000       1.687195        45.9109 
 203   0.0000       1.694773        46.1171 
 204   0.0000       1.766766        48.0761 
 205   0.0000       1.785762        48.5930 
 206   0.0000       1.787277        48.6343 
 207   0.0000       1.802954        49.0609 
 208   0.0000       1.816758        49.4365 
 209   0.0000       1.831364        49.8340 
 210   0.0000       1.835746        49.9532 
 211   0.0000       1.842474        50.1363 
 212   0.0000       1.845775        50.2261 
 213   0.0000       1.857067        50.5334 
 214   0.0000       1.863780        50.7160 
 215   0.0000       1.868065        50.8326 
 216   0.0000       1.874816        51.0163 
 217   0.0000       1.882116        51.2150 
 218   0.0000       1.893262        51.5183 
 219   0.0000       1.900166        51.7061 
 220   0.0000       1.905519        51.8518 
 221   0.0000       1.911778        52.0221 
 222   0.0000       1.922718        52.3198 
 223   0.0000       1.934099        52.6295 
 224   0.0000       1.939331        52.7719 
 225   0.0000       1.949374        53.0452 
 226   0.0000       1.956010        53.2257 
 227   0.0000       1.964162        53.4476 
 228   0.0000       1.978758        53.8447 
 229   0.0000       1.984392        53.9980 
 230   0.0000       1.995294        54.2947 
 231   0.0000       2.004473        54.5445 
 232   0.0000       2.009731        54.6876 
 233   0.0000       2.012800        54.7711 
 234   0.0000       2.017700        54.9044 
 235   0.0000       2.022548        55.0363 
 236   0.0000       2.033623        55.3377 
 237   0.0000       2.036834        55.4251 
 238   0.0000       2.060531        56.0699 
 239   0.0000       2.064723        56.1840 
 240   0.0000       2.075641        56.4811 
 241   0.0000       2.084612        56.7252 
 242   0.0000       2.102551        57.2133 
 243   0.0000       2.112512        57.4844 
 244   0.0000       2.130569        57.9757 
 245   0.0000       2.142451        58.2991 
 246   0.0000       2.149328        58.4862 
 247   0.0000       2.171220        59.0819 
 248   0.0000       2.175578        59.2005 
 249   0.0000       2.183209        59.4081 
 250   0.0000       2.199990        59.8648 
 251   0.0000       2.217323        60.3364 
 252   0.0000       2.242759        61.0286 
 253   0.0000       2.247424        61.1555 
 254   0.0000       2.251265        61.2600 
 255   0.0000       2.274279        61.8863 
 256   0.0000       2.277606        61.9768 
 257   0.0000       2.293850        62.4188 
 258   0.0000       2.320264        63.1376 
 259   0.0000       2.329179        63.3802 
 260   0.0000       2.341259        63.7089 
 261   0.0000       2.352547        64.0161 
 262   0.0000       2.377531        64.6959 
 263   0.0000       2.383703        64.8639 
 264   0.0000       2.405255        65.4503 
 265   0.0000       2.417138        65.7737 
 266   0.0000       2.425461        66.0002 
 267   0.0000       2.433582        66.2211 
 268   0.0000       2.453360        66.7593 
 269   0.0000       2.475108        67.3511 
 270   0.0000       2.495017        67.8929 
 271   0.0000       2.523009        68.6546 
 272   0.0000       2.539855        69.1130 
 273   0.0000       2.557393        69.5902 
 274   0.0000       2.570247        69.9400 
 275   0.0000       2.581111        70.2356 
 276   0.0000       2.611504        71.0626 
 277   0.0000       2.623193        71.3807 
 278   0.0000       2.634862        71.6982 
 279   0.0000       2.647184        72.0335 
 280   0.0000       2.651586        72.1533 
 281   0.0000       2.669917        72.6521 
 282   0.0000       2.679024        72.8999 
 283   0.0000       2.712942        73.8229 
 284   0.0000       2.737003        74.4776 
 285   0.0000       2.755701        74.9864 
 286   0.0000       2.765588        75.2555 
 287   0.0000       2.795584        76.0717 
 288   0.0000       2.813921        76.5707 
 289   0.0000       2.827428        76.9382 
 290   0.0000       2.852708        77.6261 
 291   0.0000       2.866789        78.0093 
 292   0.0000       2.883972        78.4769 
 293   0.0000       2.913890        79.2910 
 294   0.0000       2.926476        79.6335 
 295   0.0000       2.938858        79.9704 
 296   0.0000       2.952428        80.3396 
 297   0.0000       2.959910        80.5433 
 298   0.0000       3.003298        81.7239 
 299   0.0000       3.007064        81.8264 
 300   0.0000       3.031797        82.4994 
 301   0.0000       3.045403        82.8696 
 302   0.0000       3.051573        83.0375 
 303   0.0000       3.060008        83.2671 
 304   0.0000       3.073914        83.6455 
 305   0.0000       3.080264        83.8182 
 306   0.0000       3.084954        83.9459 
 307   0.0000       3.092662        84.1556 
 308   0.0000       3.106059        84.5202 
 309   0.0000       3.119037        84.8733 
 310   0.0000       3.144467        85.5653 
 311   0.0000       3.192115        86.8619 
 312   0.0000       3.194598        86.9294 
 313   0.0000       3.213771        87.4512 
 314   0.0000       3.225122        87.7600 
 315   0.0000       3.263079        88.7929 
 316   0.0000       3.297698        89.7349 
 317   0.0000       3.305140        89.9374 
 318   0.0000       3.370244        91.7090 
 319   0.0000       3.409634        92.7809 
 320   0.0000       3.432703        93.4086 
 321   0.0000       3.596975        97.8787 
 322   0.0000       3.640913        99.0743 
 323   0.0000       3.698353       100.6373 

                    ********************************
                    * MULLIKEN POPULATION ANALYSIS *
                    ********************************

-----------------------
MULLIKEN ATOMIC CHARGES
-----------------------
   0 C :    0.033027
   1 C :   -0.089038
   2 C :   -0.123905
   3 C :   -0.104269
   4 C :    0.029421
   5 C :   -0.130824
   6 C :   -0.039842
   7 N :   -0.124452
   8 H :    0.111511
   9 H :    0.116880
  10 C :    0.054792
  11 H :    0.031367
  12 H :    0.037036
  13 H :    0.022240
  14 N :   -0.430987
  15 C :    0.103061
  16 H :    0.031827
  17 C :    0.204523
  18 H :    0.030319
  19 O :   -0.416084
  20 C :    0.207653
  21 H :    0.028192
  22 C :    0.098498
  23 H :    0.036740
  24 H :    0.004135
  25 H :    0.005281
  26 H :    0.006993
  27 H :    0.013600
  28 C :    0.085818
  29 H :    0.020632
  30 H :    0.027846
  31 H :    0.039480
  32 H :   -0.032132
  33 H :    0.038183
  34 H :    0.047027
  35 H :    0.025451
Sum of atomic charges:    0.0000000

--------------------------------
MULLIKEN REDUCED ORBITAL CHARGES
--------------------------------
  0 C s       :     2.934543  s :     2.934543
      pz      :     1.011547  p :     3.004146
      px      :     0.963684
      py      :     1.028915
      dz2     :     0.005184  d :     0.028284
      dxz     :     0.007078
      dyz     :     0.004244
      dx2y2   :     0.007264
      dxy     :     0.004515
  1 C s       :     3.038320  s :     3.038320
      pz      :     1.049055  p :     3.008135
      px      :     0.971699
      py      :     0.987382
      dz2     :     0.003108  d :     0.042582
      dxz     :     0.006504
      dyz     :     0.006736
      dx2y2   :     0.012892
      dxy     :     0.013342
  2 C s       :     3.315153  s :     3.315153
      pz      :     1.011464  p :     2.772387
      px      :     0.911570
      py      :     0.849353
      dz2     :     0.002657  d :     0.036365
      dxz     :     0.007138
      dyz     :     0.003559
      dx2y2   :     0.010975
      dxy     :     0.012035
  3 C s       :     3.059835  s :     3.059835
      pz      :     1.033326  p :     3.001503
      px      :     0.920278
      py      :     1.047899
      dz2     :     0.003059  d :     0.042932
      dxz     :     0.007016
      dyz     :     0.006669
      dx2y2   :     0.013325
      dxy     :     0.012863
  4 C s       :     3.084249  s :     3.084249
      pz      :     1.019070  p :     2.827041
      px      :     0.857652
      py      :     0.950319
      dz2     :     0.004032  d :     0.059289
      dxz     :     0.008109
      dyz     :     0.008133
      dx2y2   :     0.017800
      dxy     :     0.021217
  5 C s       :     3.114712  s :     3.114712
      pz      :     1.050988  p :     2.975414
      px      :     0.938531
      py      :     0.985895
      dz2     :     0.003144  d :     0.040698
      dxz     :     0.006370
      dyz     :     0.006754
      dx2y2   :     0.013148
      dxy     :     0.011283
  6 C s       :     3.046576  s :     3.046576
      pz      :     0.967727  p :     2.931815
      px      :     1.017159
      py      :     0.946929
      dz2     :     0.004439  d :     0.061450
      dxz     :     0.009653
      dyz     :     0.013077
      dx2y2   :     0.015801
      dxy     :     0.018480
  7 N s       :     3.307250  s :     3.307250
      pz      :     1.687902  p :     3.799443
      px      :     1.042205
      py      :     1.069336
      dz2     :     0.001365  d :     0.017759
      dxz     :     0.003435
      dyz     :     0.003701
      dx2y2   :     0.004721
      dxy     :     0.004537
  8 H s       :     0.841925  s :     0.841925
      pz      :     0.014849  p :     0.046564
      px      :     0.023440
      py      :     0.008276
  9 H s       :     0.836639  s :     0.836639
      pz      :     0.014752  p :     0.046481
      px      :     0.011921
      py      :     0.019809
 10 C s       :     2.894586  s :     2.894586
      pz      :     1.002961  p :     3.022685
      px      :     1.045457
      py      :     0.974268
      dz2     :     0.004584  d :     0.027937
      dxz     :     0.002898
      dyz     :     0.008859
      dx2y2   :     0.006646
      dxy     :     0.004949
 11 H s       :     0.944591  s :     0.944591
      pz      :     0.011517  p :     0.024042
      px      :     0.005383
      py      :     0.007142
 12 H s       :     0.938881  s :     0.938881
      pz      :     0.010523  p :     0.024083
      px      :     0.006756
      py      :     0.006804
 13 H s       :     0.951842  s :     0.951842
      pz      :     0.005317  p :     0.025919
      px      :     0.015338
      py      :     0.005264
 14 N s       :     3.436719  s :     3.436719
      pz      :     1.217252  p :     3.966353
      px      :     1.112277
      py      :     1.636823
      dz2     :     0.006610  d :     0.027915
      dxz     :     0.007531
      dyz     :     0.003960
      dx2y2   :     0.004752
      dxy     :     0.005062
 15 C s       :     2.973890  s :     2.973890
      pz      :     0.883144  p :     2.872763
      px      :     0.967530
      py      :     1.022089
      dz2     :     0.009476  d :     0.050286
      dxz     :     0.011458
      dyz     :     0.013558
      dx2y2   :     0.006734
      dxy     :     0.009060
 16 H s       :     0.946248  s :     0.946248
      pz      :     0.006910  p :     0.021925
      px      :     0.007509
      py      :     0.007506
 17 C s       :     2.979481  s :     2.979481
      pz      :     0.898492  p :     2.752885
      px      :     0.905737
      py      :     0.948656
      dz2     :     0.011035  d :     0.063111
      dxz     :     0.016354
      dyz     :     0.010678
      dx2y2   :     0.013118
      dxy     :     0.011926
 18 H s       :     0.948874  s :     0.948874
      pz      :     0.010410  p :     0.020808
      px      :     0.006556
      py      :     0.003843
 19 O s       :     3.773074  s :     3.773074
      pz      :     1.281928  p :     4.626167
      px      :     1.610171
      py      :     1.734067
      dz2     :     0.002873  d :     0.016843
      dxz     :     0.006182
      dyz     :     0.002412
      dx2y2   :     0.002379
      dxy     :     0.002997
 20 C s       :     2.980015  s :     2.980015
      pz      :     0.819497  p :     2.749448
      px      :     0.933993
      py      :     0.995958
      dz2     :     0.014046  d :     0.062884
      dxz     :     0.017050
      dyz     :     0.013551
      dx2y2   :     0.007635
      dxy     :     0.010602
 21 H s       :     0.950629  s :     0.950629
      pz      :     0.006232  p :     0.021179
      px      :     0.007977
      py      :     0.006969
 22 C s       :     2.977499  s :     2.977499
      pz      :     0.937061  p :     2.873827
      px      :     0.955355
      py      :     0.981412
      dz2     :     0.009372  d :     0.050175
      dxz     :     0.011101
      dyz     :     0.007518
      dx2y2   :     0.010476
      dxy     :     0.011708
 23 H s       :     0.941904  s :     0.941904
      pz      :     0.011336  p :     0.021356
      px      :     0.005965
      py      :     0.004055
 24 H s       :     0.974406  s :     0.974406
      pz      :     0.004639  p :     0.021459
      px      :     0.004212
      py      :     0.012608
 25 H s       :     0.973470  s :     0.973470
      pz      :     0.004497  p :     0.021249
      px      :     0.004393
      py      :     0.012359
 26 H s       :     0.971689  s :     0.971689
      pz      :     0.004422  p :     0.021318
      px      :     0.004123
      py      :     0.012773
 27 H s       :     0.965578  s :     0.965578
      pz      :     0.005066  p :     0.020821
      px      :     0.004082
      py      :     0.011674
 28 C s       :     2.902384  s :     2.902384
      pz      :     1.013390  p :     2.983459
      px      :     0.994117
      py      :     0.975952
      dz2     :     0.004477  d :     0.028339
      dxz     :     0.007443
      dyz     :     0.004699
      dx2y2   :     0.004267
      dxy     :     0.007453
 29 H s       :     0.955699  s :     0.955699
      pz      :     0.006252  p :     0.023668
      px      :     0.008215
      py      :     0.009201
 30 H s       :     0.947551  s :     0.947551
      pz      :     0.009460  p :     0.024602
      px      :     0.010661
      py      :     0.004482
 31 H s       :     0.936047  s :     0.936047
      pz      :     0.012726  p :     0.024473
      px      :     0.006396
      py      :     0.005352
 32 H s       :     1.008878  s :     1.008878
      pz      :     0.004997  p :     0.023254
      px      :     0.005590
      py      :     0.012666
 33 H s       :     0.937744  s :     0.937744
      pz      :     0.011370  p :     0.024073
      px      :     0.005797
      py      :     0.006906
 34 H s       :     0.928958  s :     0.928958
      pz      :     0.011662  p :     0.024015
      px      :     0.005604
      py      :     0.006749
 35 H s       :     0.950787  s :     0.950787
      pz      :     0.005096  p :     0.023762
      px      :     0.004727
      py      :     0.013939


                     *******************************
                     * LOEWDIN POPULATION ANALYSIS *
                     *******************************

----------------------
LOEWDIN ATOMIC CHARGES
----------------------
   0 C :   -0.055594
   1 C :   -0.068729
   2 C :   -0.035542
   3 C :   -0.067068
   4 C :    0.005466
   5 C :   -0.065149
   6 C :    0.016477
   7 N :   -0.044890
   8 H :    0.066601
   9 H :    0.067592
  10 C :   -0.062629
  11 H :    0.025877
  12 H :    0.029496
  13 H :    0.026124
  14 N :   -0.111738
  15 C :    0.021219
  16 H :    0.027114
  17 C :    0.067304
  18 H :    0.022180
  19 O :   -0.179650
  20 C :    0.069734
  21 H :    0.020568
  22 C :    0.016788
  23 H :    0.029476
  24 H :    0.004974
  25 H :    0.006331
  26 H :    0.006416
  27 H :    0.006893
  28 C :   -0.048812
  29 H :    0.029817
  30 H :    0.027306
  31 H :    0.030868
  32 H :    0.021408
  33 H :    0.027885
  34 H :    0.032874
  35 H :    0.033013

-------------------------------
LOEWDIN REDUCED ORBITAL CHARGES
-------------------------------
  0 C s       :     2.821582  s :     2.821582
      pz      :     1.064942  p :     3.159652
      px      :     1.024714
      py      :     1.069996
      dz2     :     0.014006  d :     0.074360
      dxz     :     0.017380
      dyz     :     0.011096
      dx2y2   :     0.020517
      dxy     :     0.011361
  1 C s       :     2.839479  s :     2.839479
      pz      :     1.018308  p :     3.121450
      px      :     1.031887
      py      :     1.071256
      dz2     :     0.007377  d :     0.107800
      dxz     :     0.011445
      dyz     :     0.014189
      dx2y2   :     0.037486
      dxy     :     0.037304
  2 C s       :     2.846583  s :     2.846583
      pz      :     0.998923  p :     3.092339
      px      :     1.055213
      py      :     1.038203
      dz2     :     0.006268  d :     0.096620
      dxz     :     0.015363
      dyz     :     0.007010
      dx2y2   :     0.032568
      dxy     :     0.035410
  3 C s       :     2.843908  s :     2.843908
      pz      :     1.006324  p :     3.114719
      px      :     1.065464
      py      :     1.042931
      dz2     :     0.007493  d :     0.108441
      dxz     :     0.014042
      dyz     :     0.012960
      dx2y2   :     0.037275
      dxy     :     0.036671
  4 C s       :     2.831004  s :     2.831004
      pz      :     1.000723  p :     3.015845
      px      :     0.937502
      py      :     1.077620
      dz2     :     0.009118  d :     0.147685
      dxz     :     0.016333
      dyz     :     0.016983
      dx2y2   :     0.048389
      dxy     :     0.056863
  5 C s       :     2.846891  s :     2.846891
      pz      :     1.021522  p :     3.113724
      px      :     1.050070
      py      :     1.042133
      dz2     :     0.007497  d :     0.104533
      dxz     :     0.013096
      dyz     :     0.012525
      dx2y2   :     0.037022
      dxy     :     0.034393
  6 C s       :     2.826230  s :     2.826230
      pz      :     0.967210  p :     3.009724
      px      :     1.047510
      py      :     0.995004
      dz2     :     0.009408  d :     0.147569
      dxz     :     0.019793
      dyz     :     0.026619
      dx2y2   :     0.042157
      dxy     :     0.049591
  7 N s       :     3.051585  s :     3.051585
      pz      :     1.646713  p :     3.949288
      px      :     1.148439
      py      :     1.154135
      dz2     :     0.002227  d :     0.044017
      dxz     :     0.006628
      dyz     :     0.006835
      dx2y2   :     0.014479
      dxy     :     0.013848
  8 H s       :     0.807148  s :     0.807148
      pz      :     0.046262  p :     0.126251
      px      :     0.060918
      py      :     0.019071
  9 H s       :     0.805790  s :     0.805790
      pz      :     0.046382  p :     0.126618
      px      :     0.027945
      py      :     0.052291
 10 C s       :     2.818935  s :     2.818935
      pz      :     1.062772  p :     3.170058
      px      :     1.078630
      py      :     1.028656
      dz2     :     0.012430  d :     0.073636
      dxz     :     0.007142
      dyz     :     0.022968
      dx2y2   :     0.017885
      dxy     :     0.013211
 11 H s       :     0.906642  s :     0.906642
      pz      :     0.031876  p :     0.067481
      px      :     0.014736
      py      :     0.020869
 12 H s       :     0.902295  s :     0.902295
      pz      :     0.028913  p :     0.068209
      px      :     0.019133
      py      :     0.020163
 13 H s       :     0.899239  s :     0.899239
      pz      :     0.014146  p :     0.074638
      px      :     0.044044
      py      :     0.016447
 14 N s       :     3.079205  s :     3.079205
      pz      :     1.234906  p :     3.969788
      px      :     1.137860
      py      :     1.597022
      dz2     :     0.014492  d :     0.062745
      dxz     :     0.018781
      dyz     :     0.007607
      dx2y2   :     0.011438
      dxy     :     0.010427
 15 C s       :     2.835883  s :     2.835883
      pz      :     0.943465  p :     3.021312
      px      :     1.017666
      py      :     1.060181
      dz2     :     0.022794  d :     0.121587
      dxz     :     0.028047
      dyz     :     0.032394
      dx2y2   :     0.015565
      dxy     :     0.022787
 16 H s       :     0.906653  s :     0.906653
      pz      :     0.021271  p :     0.066233
      px      :     0.023007
      py      :     0.021955
 17 C s       :     2.843633  s :     2.843633
      pz      :     0.962691  p :     2.944527
      px      :     0.985292
      py      :     0.996545
      dz2     :     0.025173  d :     0.144536
      dxz     :     0.037588
      dyz     :     0.022533
      dx2y2   :     0.030772
      dxy     :     0.028470
 18 H s       :     0.914021  s :     0.914021
      pz      :     0.031733  p :     0.063799
      px      :     0.020563
      py      :     0.011503
 19 O s       :     3.463027  s :     3.463027
      pz      :     1.322000  p :     4.686766
      px      :     1.627454
      py      :     1.737312
      dz2     :     0.006080  d :     0.029857
      dxz     :     0.011455
      dyz     :     0.004938
      dx2y2   :     0.003059
      dxy     :     0.004324
 20 C s       :     2.844821  s :     2.844821
      pz      :     0.878041  p :     2.941251
      px      :     1.005362
      py      :     1.057848
      dz2     :     0.030286  d :     0.144195
      dxz     :     0.038288
      dyz     :     0.030791
      dx2y2   :     0.017427
      dxy     :     0.027403
 21 H s       :     0.915473  s :     0.915473
      pz      :     0.019694  p :     0.063959
      px      :     0.024304
      py      :     0.019962
 22 C s       :     2.836074  s :     2.836074
      pz      :     1.001739  p :     3.025302
      px      :     1.003281
      py      :     1.020282
      dz2     :     0.022431  d :     0.121836
      dxz     :     0.027256
      dyz     :     0.017931
      dx2y2   :     0.024585
      dxy     :     0.029632
 23 H s       :     0.904549  s :     0.904549
      pz      :     0.033934  p :     0.065975
      px      :     0.019639
      py      :     0.012403
 24 H s       :     0.927484  s :     0.927484
      pz      :     0.014598  p :     0.067542
      px      :     0.014753
      py      :     0.038191
 25 H s       :     0.928310  s :     0.928310
      pz      :     0.015355  p :     0.065359
      px      :     0.013406
      py      :     0.036598
 26 H s       :     0.928363  s :     0.928363
      pz      :     0.013844  p :     0.065221
      px      :     0.012894
      py      :     0.038484
 27 H s       :     0.926927  s :     0.926927
      pz      :     0.017438  p :     0.066180
      px      :     0.013886
      py      :     0.034856
 28 C s       :     2.819537  s :     2.819537
      pz      :     1.067288  p :     3.154658
      px      :     1.055030
[...]
 26 H s       :     0.972123  s :     0.972123
      pz      :     0.004063  p :     0.020861
      px      :     0.003850
      py      :     0.012948
 27 H s       :     0.964835  s :     0.964835
      pz      :     0.005222  p :     0.020507
      px      :     0.003792
      py      :     0.011492
 28 C s       :     2.928959  s :     2.928959
      pz      :     1.016689  p :     2.982561
      px      :     0.990906
      py      :     0.974965
      dz2     :     0.004028  d :     0.027649
      dxz     :     0.006875
      dyz     :     0.005277
      dx2y2   :     0.004337
      dxy     :     0.007132
 29 H s       :     0.951100  s :     0.951100
      pz      :     0.006581  p :     0.023150
      px      :     0.007540
      py      :     0.009029
 30 H s       :     0.945035  s :     0.945035
      pz      :     0.008645  p :     0.023895
      px      :     0.010889
      py      :     0.004361
 31 H s       :     0.931221  s :     0.931221
      pz      :     0.012502  p :     0.023891
      px      :     0.006024
      py      :     0.005365
 32 H s       :     1.000112  s :     1.000112
      pz      :     0.004817  p :     0.022615
      px      :     0.005319
      py      :     0.012479
 33 H s       :     0.935350  s :     0.935350
      pz      :     0.010860  p :     0.023350
      px      :     0.005586
      py      :     0.006905
 34 H s       :     0.925126  s :     0.925126
      pz      :     0.011544  p :     0.023319
      px      :     0.005411
      py      :     0.006364
 35 H s       :     0.946183  s :     0.946183
      pz      :     0.004986  p :     0.023138
      px      :     0.004578
      py      :     0.013574


                     *******************************
                     * LOEWDIN POPULATION ANALYSIS *
                     *******************************

----------------------
LOEWDIN ATOMIC CHARGES
----------------------
   0 C :   -0.061133
   1 C :   -0.069896
   2 C :   -0.035358
   3 C :   -0.066055
   4 C :    0.009355
   5 C :   -0.066350
   6 C :    0.019280
   7 N :   -0.049132
   8 H :    0.068023
   9 H :    0.069002
  10 C :   -0.066404
  11 H :    0.027643
  12 H :    0.031655
  13 H :    0.028434
  14 N :   -0.118948
  15 C :    0.018636
  16 H :    0.028533
  17 C :    0.063383
  18 H :    0.024654
  19 O :   -0.175735
  20 C :    0.065530
  21 H :    0.023426
  22 C :    0.015041
  23 H :    0.031561
  24 H :    0.004777
  25 H :    0.006353
  26 H :    0.006488
  27 H :    0.005861
  28 C :   -0.053897
  29 H :    0.031081
  30 H :    0.029223
  31 H :    0.032350
  32 H :    0.023992
  33 H :    0.029166
  34 H :    0.034824
  35 H :    0.034637

-------------------------------
LOEWDIN REDUCED ORBITAL CHARGES
-------------------------------
  0 C s       :     2.831565  s :     2.831565
      pz      :     1.064469  p :     3.157030
      px      :     1.022802
      py      :     1.069760
      dz2     :     0.013285  d :     0.072538
      dxz     :     0.017424
      dyz     :     0.010557
      dx2y2   :     0.019769
      dxy     :     0.011502
  1 C s       :     2.844315  s :     2.844315
      pz      :     1.020117  p :     3.120258
      px      :     1.031575
      py      :     1.068566
      dz2     :     0.007298  d :     0.105323
      dxz     :     0.011207
      dyz     :     0.013663
      dx2y2   :     0.036691
      dxy     :     0.036464
  2 C s       :     2.854570  s :     2.854570
      pz      :     0.997571  p :     3.087379
      px      :     1.053921
      py      :     1.035887
      dz2     :     0.006094  d :     0.093409
      dxz     :     0.014986
      dyz     :     0.006743
      dx2y2   :     0.031432
      dxy     :     0.034153
  3 C s       :     2.850300  s :     2.850300
      pz      :     1.004689  p :     3.110225
      px      :     1.062801
      py      :     1.042735
      dz2     :     0.007388  d :     0.105531
      dxz     :     0.013578
      dyz     :     0.012531
      dx2y2   :     0.036378
      dxy     :     0.035655
  4 C s       :     2.836954  s :     2.836954
      pz      :     1.000813  p :     3.009208
      px      :     0.934743
      py      :     1.073652
      dz2     :     0.009023  d :     0.144483
      dxz     :     0.015312
      dyz     :     0.016331
      dx2y2   :     0.047462
      dxy     :     0.056356
  5 C s       :     2.852198  s :     2.852198
      pz      :     1.022737  p :     3.112221
      px      :     1.048189
      py      :     1.041295
      dz2     :     0.007414  d :     0.101931
      dxz     :     0.012617
      dyz     :     0.012248
      dx2y2   :     0.036402
      dxy     :     0.033250
  6 C s       :     2.831188  s :     2.831188
      pz      :     0.966281  p :     3.005098
      px      :     1.043982
      py      :     0.994835
      dz2     :     0.009359  d :     0.144434
      dxz     :     0.019491
      dyz     :     0.025825
      dx2y2   :     0.040997
      dxy     :     0.048762
  7 N s       :     3.056327  s :     3.056327
      pz      :     1.647924  p :     3.949411
      px      :     1.149309
      py      :     1.152178
      dz2     :     0.002195  d :     0.043394
      dxz     :     0.006547
      dyz     :     0.006741
      dx2y2   :     0.014483
      dxy     :     0.013428
  8 H s       :     0.806961  s :     0.806961
      pz      :     0.045744  p :     0.125015
      px      :     0.060643
      py      :     0.018628
  9 H s       :     0.805751  s :     0.805751
      pz      :     0.045731  p :     0.125247
      px      :     0.026751
      py      :     0.052765
 10 C s       :     2.828537  s :     2.828537
      pz      :     1.062591  p :     3.165856
      px      :     1.076909
      py      :     1.026356
      dz2     :     0.011588  d :     0.072012
      dxz     :     0.007040
      dyz     :     0.022775
      dx2y2   :     0.018250
      dxy     :     0.012360
 11 H s       :     0.907253  s :     0.907253
      pz      :     0.030720  p :     0.065104
      px      :     0.013820
      py      :     0.020565
 12 H s       :     0.902369  s :     0.902369
      pz      :     0.028449  p :     0.065976
      px      :     0.018495
      py      :     0.019032
 13 H s       :     0.900513  s :     0.900513
      pz      :     0.013549  p :     0.071053
      px      :     0.042985
      py      :     0.014519
 14 N s       :     3.072830  s :     3.072830
      pz      :     1.218559  p :     3.985197
      px      :     1.138404
      py      :     1.628234
      dz2     :     0.014579  d :     0.060921
      dxz     :     0.019068
      dyz     :     0.007388
      dx2y2   :     0.010751
      dxy     :     0.009134
 15 C s       :     2.838340  s :     2.838340
      pz      :     0.941204  p :     3.021327
      px      :     1.018860
      py      :     1.061263
      dz2     :     0.022410  d :     0.121697
      dxz     :     0.027194
      dyz     :     0.034292
      dx2y2   :     0.016786
      dxy     :     0.021015
 16 H s       :     0.906996  s :     0.906996
      pz      :     0.020249  p :     0.064471
      px      :     0.021886
      py      :     0.022336
 17 C s       :     2.844917  s :     2.844917
      pz      :     0.959631  p :     2.945642
      px      :     0.989917
      py      :     0.996094
      dz2     :     0.026735  d :     0.146058
      dxz     :     0.036538
      dyz     :     0.022541
      dx2y2   :     0.034175
      dxy     :     0.026069
 18 H s       :     0.912918  s :     0.912918
      pz      :     0.031803  p :     0.062428
      px      :     0.019705
      py      :     0.010919
 19 O s       :     3.457428  s :     3.457428
      pz      :     1.304993  p :     4.688193
      px      :     1.644681
      py      :     1.738519
      dz2     :     0.006431  d :     0.030114
      dxz     :     0.011321
      dyz     :     0.005300
      dx2y2   :     0.002941
      dxy     :     0.004121
 20 C s       :     2.845548  s :     2.845548
      pz      :     0.872959  p :     2.943088
      px      :     1.008188
      py      :     1.061940
      dz2     :     0.032833  d :     0.145835
      dxz     :     0.038000
      dyz     :     0.030551
      dx2y2   :     0.020651
      dxy     :     0.023800
 21 H s       :     0.914007  s :     0.914007
      pz      :     0.019731  p :     0.062567
      px      :     0.022994
      py      :     0.019842
 22 C s       :     2.838074  s :     2.838074
      pz      :     0.990198  p :     3.024990
      px      :     1.006165
      py      :     1.028627
      dz2     :     0.025398  d :     0.121895
      dxz     :     0.027192
      dyz     :     0.015051
      dx2y2   :     0.028164
      dxy     :     0.026090
 23 H s       :     0.904192  s :     0.904192
      pz      :     0.033432  p :     0.064247
      px      :     0.018999
      py      :     0.011817
 24 H s       :     0.928895  s :     0.928895
      pz      :     0.012366  p :     0.066328
      px      :     0.013535
      py      :     0.040428
 25 H s       :     0.929692  s :     0.929692
      pz      :     0.014207  p :     0.063955
      px      :     0.012322
      py      :     0.037426
 26 H s       :     0.929667  s :     0.929667
      pz      :     0.012738  p :     0.063845
      px      :     0.011980
      py      :     0.039128
 27 H s       :     0.929241  s :     0.929241
      pz      :     0.017917  p :     0.064898
      px      :     0.012845
      py      :     0.034137
 28 C s       :     2.829220  s :     2.829220
      pz      :     1.068193  p :     3.152261
      px      :     1.052885
      py      :     1.031182
      dz2     :     0.010742  d :     0.072416
      dxz     :     0.018175
      dyz     :     0.012835
      dx2y2   :     0.011084
      dxy     :     0.019580
 29 H s       :     0.904457  s :     0.904457
      pz      :     0.017042  p :     0.064462
      px      :     0.020850
      py      :     0.026570
 30 H s       :     0.904962  s :     0.904962
      pz      :     0.022800  p :     0.065814
      px      :     0.030146
      py      :     0.012869
 31 H s       :     0.902106  s :     0.902106
      pz      :     0.034113  p :     0.065544
      px      :     0.015924
      py      :     0.015507
 32 H s       :     0.909727  s :     0.909727
      pz      :     0.014869  p :     0.066281
      px      :     0.016201
      py      :     0.035210
 33 H s       :     0.906012  s :     0.906012
      pz      :     0.029642  p :     0.064822
      px      :     0.016964
      py      :     0.018216
 34 H s       :     0.899821  s :     0.899821
      pz      :     0.031746  p :     0.065354
      px      :     0.016762
      py      :     0.016847
 35 H s       :     0.900658  s :     0.900658
      pz      :     0.012533  p :     0.064705
      px      :     0.014212
      py      :     0.037960


                      *****************************
                      * MAYER POPULATION ANALYSIS *
                      *****************************

  NA   - Mulliken gross atomic population
  ZA   - Total nuclear charge
  QA   - Mulliken gross atomic charge
  VA   - Mayer's total valence
  BVA  - Mayer's bonded valence
  FA   - Mayer's free valence

  ATOM       NA         ZA         QA         VA         BVA        FA
  0 C      5.9914     6.0000     0.0086     3.9273     3.9273    -0.0000
  1 C      6.0821     6.0000    -0.0821     3.8994     3.8994    -0.0000
  2 C      6.1241     6.0000    -0.1241     3.9161     3.9161     0.0000
  3 C      6.0879     6.0000    -0.0879     3.9338     3.9338    -0.0000
  4 C      5.9750     6.0000     0.0250     4.0722     4.0722    -0.0000
  5 C      6.1162     6.0000    -0.1162     3.9993     3.9993     0.0000
  6 C      6.0344     6.0000    -0.0344     4.1594     4.1594    -0.0000
  7 N      7.1346     7.0000    -0.1346     3.1786     3.1786     0.0000
  8 H      0.8870     1.0000     0.1130     1.0135     1.0135    -0.0000
  9 H      0.8817     1.0000     0.1183     1.0091     1.0091    -0.0000
 10 C      5.9715     6.0000     0.0285     3.9253     3.9253    -0.0000
 11 H      0.9647     1.0000     0.0353     0.9858     0.9858    -0.0000
 12 H      0.9580     1.0000     0.0420     0.9937     0.9937    -0.0000
 13 H      0.9722     1.0000     0.0278     1.0394     1.0394    -0.0000
 14 N      7.4338     7.0000    -0.4338     3.0726     3.0726    -0.0000
 15 C      5.8990     6.0000     0.1010     3.9679     3.9679     0.0000
 16 H      0.9675     1.0000     0.0325     0.9900     0.9900     0.0000
 17 C      5.8039     6.0000     0.1961     4.0516     4.0516     0.0000
 18 H      0.9662     1.0000     0.0338     0.9837     0.9837    -0.0000
 19 O      8.4099     8.0000    -0.4099     2.0719     2.0719    -0.0000
 20 C      5.8053     6.0000     0.1947     4.0536     4.0536    -0.0000
 21 H      0.9683     1.0000     0.0317     0.9841     0.9841    -0.0000
 22 C      5.9000     6.0000     0.1000     3.9737     3.9737    -0.0000
 23 H      0.9613     1.0000     0.0387     0.9893     0.9893     0.0000
 24 H      0.9953     1.0000     0.0047     0.9927     0.9927    -0.0000
 25 H      0.9936     1.0000     0.0064     0.9918     0.9918    -0.0000
 26 H      0.9930     1.0000     0.0070     0.9907     0.9907    -0.0000
 27 H      0.9853     1.0000     0.0147     0.9886     0.9886    -0.0000
 28 C      5.9392     6.0000     0.0608     3.9156     3.9156    -0.0000
 29 H      0.9743     1.0000     0.0257     0.9960     0.9960     0.0000
 30 H      0.9689     1.0000     0.0311     0.9984     0.9984    -0.0000
 31 H      0.9551     1.0000     0.0449     0.9886     0.9886     0.0000
 32 H      1.0227     1.0000    -0.0227     1.0000     1.0000    -0.0000
 33 H      0.9587     1.0000     0.0413     0.9856     0.9856    -0.0000
 34 H      0.9484     1.0000     0.0516     0.9866     0.9866    -0.0000
 35 H      0.9693     1.0000     0.0307     1.0028     1.0028    -0.0000

  Mayer bond orders larger than 0.100000
B(  0-C ,  1-C ) :   1.0452 B(  0-C , 33-H ) :   0.9590 B(  0-C , 34-H ) :   0.9588 
B(  0-C , 35-H ) :   0.9563 B(  1-C ,  2-C ) :   1.3961 B(  1-C ,  6-C ) :   1.3653 
B(  2-C ,  3-C ) :   1.3563 B(  2-C , 32-H ) :   0.9880 B(  3-C ,  4-C ) :   1.4037 
B(  3-C , 28-C ) :   1.0523 B(  4-C ,  5-C ) :   1.4496 B(  4-C , 14-N ) :   1.0311 
B(  5-C ,  6-C ) :   1.3462 B(  5-C , 10-C ) :   1.0768 B(  6-C ,  7-N ) :   1.2208 
B(  7-N ,  8-H ) :   0.9427 B(  7-N ,  9-H ) :   0.9412 B( 10-C , 11-H ) :   0.9551 
B( 10-C , 12-H ) :   0.9515 B( 10-C , 13-H ) :   0.9309 B( 14-N , 15-C ) :   0.9629 
B( 14-N , 22-C ) :   0.9733 B( 15-C , 16-H ) :   0.9467 B( 15-C , 17-C ) :   1.0804 
B( 15-C , 27-H ) :   0.9230 B( 17-C , 18-H ) :   0.9562 B( 17-C , 19-O ) :   0.9981 
B( 17-C , 26-H ) :   0.9356 B( 19-O , 20-C ) :   0.9964 B( 20-C , 21-H ) :   0.9569 
B( 20-C , 22-C ) :   1.0839 B( 20-C , 25-H ) :   0.9351 B( 22-C , 23-H ) :   0.9488 
B( 22-C , 24-H ) :   0.9169 B( 28-C , 29-H ) :   0.9541 B( 28-C , 30-H ) :   0.9601 
B( 28-C , 31-H ) :   0.9501 

-------
TIMINGS
-------

Total SCF time: 0 days 0 hours 3 min 8 sec 

Total time                  ....     188.144 sec
Sum of individual times     ....     187.893 sec  ( 99.9%)

Fock matrix formation       ....     184.504 sec  ( 98.1%)
  XC integration            ....       5.754 sec  (  3.1% of F)
    Basis function eval.    ....       1.878 sec  ( 32.6% of XC)
    Density eval.           ....       1.196 sec  ( 20.8% of XC)
    XC-Functional eval.     ....       1.057 sec  ( 18.4% of XC)
    XC-Potential eval.      ....       1.466 sec  ( 25.5% of XC)
Diagonalization             ....       0.012 sec  (  0.0%)
Density matrix formation    ....       0.012 sec  (  0.0%)
Population analysis         ....       0.010 sec  (  0.0%)
Initial guess               ....       0.012 sec  (  0.0%)
Orbital Transformation      ....       0.000 sec  (  0.0%)
Orbital Orthonormalization  ....       0.009 sec  (  0.0%)
DIIS solution               ....       0.003 sec  (  0.0%)
SOSCF solution              ....       0.038 sec  (  0.0%)
Grid generation             ....       3.302 sec  (  1.8%)


-------------------------------------------------------------------------------
                          DFT DISPERSION CORRECTION                            
                                                                               
                              DFTD3 V3.1  Rev 1                                
                              USING zero damping                               
-------------------------------------------------------------------------------
The omegaB97X-D3 functional is recognized. Fit by Chai et al.
Active option DFTDOPT                   ...         3   

molecular C6(AA) [au] = 11217.117263 


            DFT-D V3
 parameters
 s6 scaling factor         :     1.0000 
 rs6 scaling factor        :     1.2810 
 s8 scaling factor         :     1.0000 
 rs8 scaling factor        :     1.0940 
 Damping factor alpha6     :    14.0000 
 Damping factor alpha8     :    16.0000 
 ad hoc parameters k1-k3   :    16.0000     1.3333    -4.0000 

 Edisp/kcal,au: -10.403747220434  -0.016579424759 
 E6   /kcal   :  -4.786095758 
 E8   /kcal   :  -5.617651462 
 % E8         :  53.996424011 

-------------------------   ----------------
Dispersion correction           -0.016579425
-------------------------   ----------------


-------------------------   --------------------
FINAL SINGLE POINT ENERGY      -691.474780837557
-------------------------   --------------------

                                *** OPTIMIZATION RUN DONE ***

                            ***************************************
                            *     ORCA property calculations      *
                            ***************************************

                                    ---------------------
                                    Active property flags
                                    ---------------------
   (+) Dipole Moment


------------------------------------------------------------------------------
                       ORCA ELECTRIC PROPERTIES CALCULATION
------------------------------------------------------------------------------

Dipole Moment Calculation                       ... on
Quadrupole Moment Calculation                   ... off
Polarizability Calculation                      ... off
GBWName                                         ... 053403366.gbw
Electron density file                           ... 053403366.scfp
The origin for moment calculation is the CENTER OF MASS  = ( 0.000385, -0.015453 -0.003564)

-------------
DIPOLE MOMENT
-------------
                                X             Y             Z
Electronic contribution:      0.90301       0.33936       0.26517
Nuclear contribution   :     -1.69615       0.08124      -0.57019
                        -----------------------------------------
Total Dipole Moment    :     -0.79313       0.42060      -0.30501
                        -----------------------------------------
Magnitude (a.u.)       :      0.94815
Magnitude (Debye)      :      2.41002



--------------------
Rotational spectrum 
--------------------
 
Rotational constants in cm-1:     0.035335     0.010985     0.009196 
Rotational constants in MHz :  1059.306207   329.320994   275.676681 

 Dipole components along the rotational axes: 
x,y,z [a.u.] :    -0.797494     0.403925    -0.315981 
x,y,z [Debye]:    -2.027070     1.026697    -0.803159 

 

Timings for individual modules:

Sum of individual times         ...     3880.855 sec (=  64.681 min)
GTO integral calculation        ...        2.850 sec (=   0.048 min)   0.1 %
SCF iterations                  ...     2535.724 sec (=  42.262 min)  65.3 %
SCF Gradient evaluation         ...     1340.760 sec (=  22.346 min)  34.5 %
Geometry relaxation             ...        1.520 sec (=   0.025 min)   0.0 %
                             ****ORCA TERMINATED NORMALLY****
TOTAL RUN TIME: 0 days 1 hours 4 minutes 42 seconds 694 msec
