
                                 *****************
                                 * O   R   C   A *
                                 *****************

           --- An Ab Initio, DFT and Semiempirical electronic structure package ---

                  #######################################################
                  #                        -***-                        #
                  #          Department of theory and spectroscopy      #
                  #               Directorship: Frank Neese             #
                  #        Max Planck Institute fuer Kohlenforschung    #
                  #                Kaiser Wilhelm Platz 1               #
                  #                 D-45470 Muelheim/Ruhr               #
                  #                      Germany                        #
                  #                                                     #
                  #                  All rights reserved                #
                  #                        -***-                        #
                  #######################################################


                         Program Version 4.2.0 -  RELEASE  -


 With contributions from (in alphabetic order):
   Daniel Aravena         : Magnetic Suceptibility
   Michael Atanasov       : Ab Initio Ligand Field Theory (pilot matlab implementation)
   Alexander A. Auer      : GIAO ZORA, VPT2
   Ute Becker             : Parallelization
   Giovanni Bistoni       : ED, misc. LED, open-shell LED, HFLED
   Martin Brehm           : Molecular dynamics
   Dmytro Bykov           : SCF Hessian
   Vijay G. Chilkuri      : MRCI spin determinant printing, contributions to CSF-ICE
   Dipayan Datta          : RHF DLPNO-CCSD density
   Achintya Kumar Dutta   : EOM-CC, STEOM-CC
   Dmitry Ganyushin       : Spin-Orbit,Spin-Spin,Magnetic field MRCI
   Miquel Garcia          : C-PCM Hessian, Gaussian charge scheme
   Yang Guo               : DLPNO-NEVPT2, CIM, IAO-localization
   Andreas Hansen         : Spin unrestricted coupled pair/coupled cluster methods
   Benjamin Helmich-Paris : CASSCF linear response (MC-RPA)
   Lee Huntington         : MR-EOM, pCC
   Robert Izsak           : Overlap fitted RIJCOSX, COSX-SCS-MP3, EOM
   Christian Kollmar      : KDIIS, OOCD, Brueckner-CCSD(T), CCSD density
   Simone Kossmann        : Meta GGA functionals, TD-DFT gradient, OOMP2, MP2 Hessian
   Martin Krupicka        : AUTO-CI
   Lucas Lang             : DCDCAS
   Dagmar Lenk            : GEPOL surface, SMD
   Dimitrios Liakos       : Extrapolation schemes; Compound Job, initial MDCI parallelization
   Dimitrios Manganas     : Further ROCIS development; embedding schemes
   Dimitrios Pantazis     : SARC Basis sets
   Taras Petrenko         : DFT Hessian,TD-DFT gradient, ASA, ECA, R-Raman, ABS, FL, XAS/XES, NRVS
   Peter Pinski           : DLPNO-MP2, DLPNO-MP2 Gradient
   Christoph Reimann      : Effective Core Potentials
   Marius Retegan         : Local ZFS, SOC
   Christoph Riplinger    : Optimizer, TS searches, QM/MM, DLPNO-CCSD(T), (RO)-DLPNO pert. Triples
   Tobias Risthaus        : Range-separated hybrids, TD-DFT gradient, RPA, STAB
   Michael Roemelt        : Original ROCIS implementation
   Masaaki Saitow         : Open-shell DLPNO-CCSD energy and density
   Barbara Sandhoefer     : DKH picture change effects
   Avijit Sen             : IP-ROCIS
   Kantharuban Sivalingam : CASSCF convergence, NEVPT2, FIC-MRCI
   Bernardo de Souza      : ESD, SOC TD-DFT
   Georgi Stoychev        : AutoAux, RI-MP2 NMR
   Willem Van den Heuvel  : Paramagnetic NMR
   Boris Wezisla          : Elementary symmetry handling
   Frank Wennmohs         : Technical directorship


 We gratefully acknowledge several colleagues who have allowed us to
 interface, adapt or use parts of their codes:
   Stefan Grimme, W. Hujo, H. Kruse,             : VdW corrections, initial TS optimization,
                  C. Bannwarth                     DFT functionals, gCP, sTDA/sTD-DF
   Ed Valeev, F. Pavosevic, A. Kumar             : LibInt (2-el integral package), F12 methods
   Garnet Chan, S. Sharma, J. Yang, R. Olivares  : DMRG
   Ulf Ekstrom                                   : XCFun DFT Library
   Mihaly Kallay                                 : mrcc  (arbitrary order and MRCC methods)
   Andreas Klamt, Michael Diedenhofen            : otool_cosmo (COSMO solvation model)
   Jiri Pittner, Ondrej Demel                    : Mk-CCSD
   Frank Weinhold                                : gennbo (NPA and NBO analysis)
   Christopher J. Cramer and Donald G. Truhlar   : smd solvation model
   Lars Goerigk                                  : TD-DFT with DH, B97 family of functionals
   V. Asgeirsson, H. Jonsson                     : NEB implementation
   FAccTs GmbH                                   : IRC, NEB, NEB-TS, Multilevel, MM, QM/MM, CI optimization
   S Lehtola, MJT Oliveira, MAL Marques          : LibXC Library


 Your calculation uses the libint2 library for the computation of 2-el integrals
 For citations please refer to: http://libint.valeyev.net

 Your ORCA version has been built with support for libXC version: 4.2.3
 For citations please refer to: https://tddft.org/programs/libxc/

 This ORCA versions uses:
   CBLAS   interface :  Fast vector & matrix operations
   LAPACKE interface :  Fast linear algebra routines
   SCALAPACK package :  Parallel linear algebra routines


Your calculation utilizes the atom-pairwise dispersion correction
with the zero-damping scheme (D30)
Cite in your paper:
S.Grimme, J.Antony, S.Ehrlich and H.Krieg, J.Chem.Phys., 132, (2010), 154104 
   

XCFun DFT library Copyright 2009-2010 Ulf Ekstrom and contributors.
See http://admol.org/xcfun for more information. This is free soft-
ware; see the source code for copying conditions. There is ABSOLUTELY
NO WARRANTY; not even for MERCHANTABILITY or FITNESS FOR A PARTICULAR
PURPOSE. For details see the documentation. Scientific users of this 
library should cite U. Ekstrom, L. Visscher, R. Bast, A. J. Thorvald-
sen and K. Ruud; J.Chem.Theor.Comp. 2010, DOI: 10.1021/ct100117s
XCFun Version 0.99 
----- Orbital basis set information -----
Your calculation utilizes the basis: def2-SVP
   F. Weigend and R. Ahlrichs, Phys. Chem. Chem. Phys. 7, 3297 (2005).

================================================================================
                                        WARNINGS
                       Please study these warnings very carefully!
================================================================================


WARNING: Geometry Optimization
  ===> : Switching off AutoStart
         For restart on a previous wavefunction, please use MOREAD

INFO   : the flag for use of LIBINT has been found!

================================================================================
                                       INPUT FILE
================================================================================
NAME = 053827465.inp
|  1> # ORCA input file
|  2> # -44.16662223
|  3> ! wB97X-D3 def2-SVP Opt
|  4> * xyz 0 1
|  5>    C       -0.14500        -2.82680        -0.26340
|  6>    C       -0.96410        -1.57620        -0.11370
|  7>    C       -2.34740        -1.68260        -0.08730
|  8>    C       -3.16050        -0.56760        -0.00440
|  9>    C       -2.60750         0.70070         0.06370
| 10>    C       -1.21190         0.82740         0.08890
| 11>    C       -0.39220        -0.30470        -0.00610
| 12>    N        1.00390        -0.02430         0.03500
| 13>    C        1.84570        -0.75840         0.95120
| 14>    C        3.07270         0.09880         1.26910
| 15>    C        3.83080         0.40000        -0.02110
| 16>    C        2.89650         1.07340        -1.02300
| 17>    C        1.64990         0.21470        -1.23860
| 18>    H        0.94280         0.72980        -1.89230
| 19>    H        1.94700        -0.72960        -1.73040
| 20>    H        3.40610         1.22560        -1.97620
| 21>    H        2.59570         2.05040        -0.63930
| 22>    H        4.69020         1.04150         0.18420
| 23>    H        4.20380        -0.53550        -0.44590
| 24>    H        3.71700        -0.42750         1.97560
| 25>    H        2.75000         1.03400         1.73090
| 26>    H        1.27480        -0.96040         1.86050
| 27>    H        2.19820        -1.71800         0.53780
| 28>    N       -0.63080         2.09760         0.15130
| 29>    H        0.35490         2.01160         0.37320
| 30>    H       -1.11420         2.72180         0.78300
| 31>    N       -3.40230         1.84690         0.19040
| 32>    H       -3.03500         2.64280        -0.31260
| 33>    H       -4.37320         1.67930        -0.03280
| 34>    H       -4.23580        -0.67890        -0.00390
| 35>    H       -2.80180        -2.66060        -0.15690
| 36>    H        0.27930        -3.13570         0.69230
| 37>    H        0.66880        -2.68210        -0.97040
| 38>    H       -0.77230        -3.63760        -0.62830
| 39> *
| 40> 
| 41>                          ****END OF INPUT****
================================================================================

                       *****************************
                       * Geometry Optimization Run *
                       *****************************

Geometry optimization settings:
Update method            Update   .... BFGS
Choice of coordinates    CoordSys .... Z-matrix Internals
Initial Hessian          InHess   .... Almoef's Model

Convergence Tolerances:
Energy Change            TolE     ....  5.0000e-06 Eh
Max. Gradient            TolMAXG  ....  3.0000e-04 Eh/bohr
RMS Gradient             TolRMSG  ....  1.0000e-04 Eh/bohr
Max. Displacement        TolMAXD  ....  4.0000e-03 bohr
RMS Displacement         TolRMSD  ....  2.0000e-03 bohr
Strict Convergence                ....  False
------------------------------------------------------------------------------
                        ORCA OPTIMIZATION COORDINATE SETUP
------------------------------------------------------------------------------

The optimization will be done in new redundant internal coordinates
Making redundant internal coordinates   ...  (new redundants) done
Evaluating the initial hessian          ...  (Almloef) done
Evaluating the coordinates              ...  done
Calculating the B-matrix                .... done
Calculating the G-matrix                .... done
Diagonalizing the G-matrix              .... done
Small eigenvalue found = 7.949e-03
Small eigenvalue found = 2.106e-02
Small eigenvalue found = 2.704e-02
The first mode is                       ....   92
The number of degrees of freedom        ....   96

    -----------------------------------------------------------------
                    Redundant Internal Coordinates


    -----------------------------------------------------------------
         Definition                    Initial Value    Approx d2E/dq
    -----------------------------------------------------------------
      1. B(C   1,C   0)                  1.5024         0.413374   
      2. B(C   2,C   1)                  1.3876         0.630243   
      3. B(C   3,C   2)                  1.3825         0.642316   
      4. B(C   4,C   3)                  1.3853         0.635699   
      5. B(C   5,C   4)                  1.4016         0.598805   
      6. B(C   6,C   5)                  1.4009         0.600223   
      7. B(C   6,C   1)                  1.3983         0.605940   
      8. B(N   7,C   6)                  1.4246         0.492852   
      9. B(C   8,N   7)                  1.4446         0.457845   
     10. B(C   9,C   8)                  1.5302         0.373359   
     11. B(C  10,C   9)                  1.5265         0.378477   
     12. B(C  11,C  10)                  1.5265         0.378416   
     13. B(C  12,C  11)                  1.5290         0.374941   
     14. B(C  12,N   7)                  1.4479         0.452331   
     15. B(H  13,C  12)                  1.0921         0.357357   
     16. B(H  14,C  12)                  1.1054         0.340333   
     17. B(H  15,C  11)                  1.0915         0.358076   
     18. B(H  16,C  11)                  1.0919         0.357601   
     19. B(H  17,C  10)                  1.0919         0.357599   
     20. B(H  18,C  10)                  1.0930         0.356096   
     21. B(H  19,C   9)                  1.0914         0.358191   
     22. B(H  20,C   9)                  1.0918         0.357747   
     23. B(H  21,C   8)                  1.0925         0.356807   
     24. B(H  22,C   8)                  1.1027         0.343662   
     25. B(N  23,C   5)                  1.3982         0.542980   
     26. B(H  24,N  23)                  1.0140         0.426362   
     27. B(H  25,N  23)                  1.0111         0.430945   
     28. B(N  26,C   4)                  1.4005         0.538328   
     29. B(H  27,N  26)                  1.0106         0.431706   
     30. B(H  28,N  26)                  1.0102         0.432350   
     31. B(H  29,C   3)                  1.0810         0.372144   
     32. B(H  30,C   2)                  1.0807         0.372682   
     33. B(H  31,C   0)                  1.0903         0.359668   
     34. B(H  32,C   0)                  1.0877         0.363176   
     35. B(H  33,C   0)                  1.0881         0.362566   
     36. A(C   1,C   0,H  32)          111.2187         0.330237   
     37. A(H  32,C   0,H  33)          108.2086         0.291541   
     38. A(C   1,C   0,H  31)          111.1396         0.329708   
     39. A(C   1,C   0,H  33)          109.8372         0.330145   
     40. A(H  31,C   0,H  33)          107.8891         0.291097   
     41. A(H  31,C   0,H  32)          108.4379         0.291173   
     42. A(C   0,C   1,C   2)          118.7864         0.404985   
     43. A(C   2,C   1,C   6)          118.4221         0.433555   
     44. A(C   0,C   1,C   6)          122.7907         0.402185   
     45. A(C   1,C   2,H  30)          119.1660         0.355957   
     46. A(C   3,C   2,H  30)          119.1086         0.357106   
     47. A(C   1,C   2,C   3)          121.7093         0.438131   
     48. A(C   4,C   3,H  29)          119.4268         0.356390   
     49. A(C   2,C   3,H  29)          120.1334         0.357018   
     50. A(C   2,C   3,C   4)          120.4360         0.438813   
     51. A(C   5,C   4,N  26)          119.3056         0.417859   
     52. A(C   3,C   4,N  26)          121.8155         0.422340   
     53. A(C   3,C   4,C   5)          118.7601         0.433303   
     54. A(C   4,C   5,C   6)          120.5541         0.428857   
     55. A(C   4,C   5,N  23)          119.7859         0.418500   
     56. A(C   6,C   5,N  23)          119.6024         0.418677   
     57. A(C   5,C   6,N   7)          114.3558         0.411528   
     58. A(C   1,C   6,N   7)          125.5918         0.412220   
     59. A(C   1,C   6,C   5)          120.0479         0.429770   
     60. A(C   6,N   7,C  12)          116.3818         0.389035   
     61. A(C   6,N   7,C   8)          119.2972         0.389859   
     62. A(C   8,N   7,C  12)          112.4423         0.384073   
     63. A(H  21,C   8,H  22)          108.5524         0.288301   
     64. A(N   7,C   8,C   9)          108.3217         0.373877   
     65. A(C   9,C   8,H  22)          108.0020         0.321813   
     66. A(N   7,C   8,H  22)          112.9991         0.330808   
     67. A(C   9,C   8,H  21)          110.4686         0.323799   
     68. A(N   7,C   8,H  21)          108.5006         0.332871   
     69. A(C   8,C   9,C  10)          109.4622         0.364126   
     70. A(H  19,C   9,H  20)          108.2842         0.290298   
     71. A(C  10,C   9,H  20)          109.5899         0.324664   
     72. A(C   8,C   9,H  20)          109.3127         0.323939   
     73. A(C  10,C   9,H  19)          110.4319         0.324730   
     74. A(C   8,C   9,H  19)          109.7375         0.324005   
     75. A(C   9,C  10,H  18)          109.2134         0.324418   
     76. A(C  11,C  10,H  17)          110.2405         0.324634   
     77. A(C   9,C  10,H  17)          110.3589         0.324642   
     78. A(C   9,C  10,C  11)          109.7448         0.364965   
     79. A(H  17,C  10,H  18)          107.8975         0.290012   
     80. A(C  11,C  10,H  18)          109.3502         0.324409   
     81. A(H  15,C  11,H  16)          108.1027         0.290265   
     82. A(C  12,C  11,H  16)          109.1146         0.324142   
     83. A(C  10,C  11,H  16)          109.4322         0.324634   
     84. A(C  12,C  11,H  15)          109.6217         0.324213   
     85. A(C  10,C  11,H  15)          110.4215         0.324705   
     86. A(C  10,C  11,C  12)          110.1092         0.364380   
     87. A(H  13,C  12,H  14)          108.0983         0.287932   
     88. A(C  11,C  12,H  14)          108.8670         0.321523   
     89. A(N   7,C  12,H  14)          111.7315         0.329615   
     90. A(C  11,C  12,H  13)          110.3285         0.324106   
     91. A(N   7,C  12,H  13)          108.3906         0.332288   
     92. A(N   7,C  12,C  11)          109.4158         0.373368   
     93. A(H  24,N  23,H  25)          112.3569         0.302345   
     94. A(C   5,N  23,H  25)          112.9551         0.350451   
     95. A(C   5,N  23,H  24)          109.6769         0.349819   
     96. A(H  27,N  26,H  28)          111.7143         0.303105   
     97. A(C   4,N  26,H  28)          112.9321         0.350135   
     98. A(C   4,N  26,H  27)          113.1560         0.350047   
     99. D(C   2,C   1,C   0,H  33)     16.8905         0.012648   
    100. D(C   2,C   1,C   0,H  31)   -102.4240         0.012648   
    101. D(C   6,C   1,C   0,H  31)     77.9040         0.012648   
    102. D(C   2,C   1,C   0,H  32)    136.6534         0.012648   
    103. D(C   6,C   1,C   0,H  32)    -43.0186         0.012648   
    104. D(C   6,C   1,C   0,H  33)   -162.7815         0.012648   
    105. D(C   3,C   2,C   1,C   0)   -177.4412         0.027542   
    106. D(C   3,C   2,C   1,C   6)      2.2453         0.027542   
    107. D(H  30,C   2,C   1,C   6)   -179.2280         0.027542   
    108. D(H  30,C   2,C   1,C   0)      1.0855         0.027542   
    109. D(H  29,C   3,C   2,C   1)    178.8754         0.028679   
    110. D(C   4,C   3,C   2,H  30)   -178.9351         0.028679   
    111. D(H  29,C   3,C   2,H  30)      0.3478         0.028679   
    112. D(C   4,C   3,C   2,C   1)     -0.4076         0.028679   
    113. D(C   5,C   4,C   3,C   2)     -1.9622         0.028052   
    114. D(C   5,C   4,C   3,H  29)    178.7498         0.028052   
    115. D(N  26,C   4,C   3,H  29)      2.7403         0.028052   
    116. D(N  26,C   4,C   3,C   2)   -177.9717         0.028052   
    117. D(N  23,C   5,C   4,N  26)     -4.1797         0.024714   
    118. D(C   6,C   5,C   4,C   3)      2.4787         0.024714   
    119. D(N  23,C   5,C   4,C   3)    179.7087         0.024714   
    120. D(C   6,C   5,C   4,N  26)    178.5902         0.024714   
    121. D(N   7,C   6,C   5,N  23)      2.8488         0.024837   
    122. D(C   1,C   6,C   5,N  23)   -177.8817         0.024837   
    123. D(C   1,C   6,C   5,C   4)     -0.6466         0.024837   
    124. D(N   7,C   6,C   1,C   2)    177.4874         0.025339   
    125. D(N   7,C   6,C   5,C   4)   -179.9161         0.024837   
    126. D(N   7,C   6,C   1,C   0)     -2.8395         0.025339   
    127. D(C   5,C   6,C   1,C   2)     -1.6943         0.025339   
    128. D(C   5,C   6,C   1,C   0)    177.9788         0.025339   
    129. D(C   8,N   7,C   6,C   1)    -49.5880         0.019187   
    130. D(C  12,N   7,C   6,C   5)    -90.2850         0.019187   
    131. D(C  12,N   7,C   6,C   1)     90.4926         0.019187   
    132. D(C   8,N   7,C   6,C   5)    129.6345         0.019187   
    133. D(H  22,C   8,N   7,C  12)    -55.8265         0.017891   
    134. D(H  21,C   8,N   7,C  12)   -176.2581         0.017891   
    135. D(H  21,C   8,N   7,C   6)    -34.7193         0.017891   
    136. D(C   9,C   8,N   7,C  12)     63.7919         0.017891   
    137. D(H  22,C   8,N   7,C   6)     85.7123         0.017891   
    138. D(C   9,C   8,N   7,C   6)   -154.6693         0.017891   
    139. D(H  20,C   9,C   8,H  22)   -176.9424         0.011131   
    140. D(H  20,C   9,C   8,H  21)    -58.3622         0.011131   
    141. D(H  20,C   9,C   8,N   7)     60.3485         0.011131   
    142. D(H  19,C   9,C   8,H  22)    -58.3273         0.011131   
    143. D(H  19,C   9,C   8,H  21)     60.2529         0.011131   
    144. D(H  19,C   9,C   8,N   7)    178.9636         0.011131   
    145. D(C  10,C   9,C   8,H  22)     63.0148         0.011131   
    146. D(C  10,C   9,C   8,H  21)   -178.4049         0.011131   
    147. D(C  10,C   9,C   8,N   7)    -59.6943         0.011131   
    148. D(H  18,C  10,C   9,H  20)    176.5509         0.011421   
    149. D(H  18,C  10,C   9,H  19)     57.3456         0.011421   
    150. D(H  18,C  10,C   9,C   8)    -63.5762         0.011421   
    151. D(H  17,C  10,C   9,H  20)     58.0972         0.011421   
    152. D(H  17,C  10,C   9,H  19)    -61.1081         0.011421   
    153. D(H  17,C  10,C   9,C   8)    177.9701         0.011421   
    154. D(C  11,C  10,C   9,H  20)    -63.5884         0.011421   
    155. D(C  11,C  10,C   9,H  19)    177.2063         0.011421   
    156. D(C  11,C  10,C   9,C   8)     56.2845         0.011421   
    157. D(H  15,C  11,C  10,H  17)     62.5080         0.011418   
    158. D(H  15,C  11,C  10,C   9)   -175.7356         0.011418   
    159. D(C  12,C  11,C  10,H  18)     65.2337         0.011418   
    160. D(C  12,C  11,C  10,H  17)   -176.2999         0.011418   
    161. D(C  12,C  11,C  10,C   9)    -54.5435         0.011418   
    162. D(H  16,C  11,C  10,H  18)   -174.8360         0.011418   
    163. D(H  16,C  11,C  10,H  17)    -56.3695         0.011418   
    164. D(H  16,C  11,C  10,C   9)     65.3869         0.011418   
    165. D(H  15,C  11,C  10,H  18)    -55.9585         0.011418   
    166. D(H  14,C  12,C  11,H  16)    173.8146         0.011221   
    167. D(H  14,C  12,C  11,H  15)     55.6061         0.011221   
    168. D(H  14,C  12,C  11,C  10)    -66.0629         0.011221   
    169. D(H  13,C  12,C  11,H  15)    -62.8637         0.011221   
    170. D(H  13,C  12,C  11,C  10)    175.4673         0.011221   
    171. D(N   7,C  12,C  11,H  16)    -63.8195         0.011221   
    172. D(N   7,C  12,C  11,H  15)    177.9720         0.011221   
    173. D(N   7,C  12,C  11,C  10)     56.3030         0.011221   
    174. D(H  14,C  12,N   7,C   8)     58.3980         0.017456   
    175. D(H  14,C  12,N   7,C   6)    -84.3380         0.017456   
    176. D(H  13,C  12,C  11,H  16)     55.3448         0.011221   
    177. D(H  13,C  12,N   7,C   8)    177.4061         0.017456   
    178. D(H  13,C  12,N   7,C   6)     34.6700         0.017456   
    179. D(C  11,C  12,N   7,C   8)    -62.2387         0.017456   
    180. D(C  11,C  12,N   7,C   6)    155.0253         0.017456   
    181. D(H  25,N  23,C   5,C   6)   -141.7019         0.023467   
    182. D(H  25,N  23,C   5,C   4)     41.0415         0.023467   
    183. D(H  24,N  23,C   5,C   6)    -15.5332         0.023467   
    184. D(H  24,N  23,C   5,C   4)    167.2102         0.023467   
    185. D(H  28,N  26,C   4,C   5)    167.8915         0.023047   
    186. D(H  28,N  26,C   4,C   3)    -16.1202         0.023047   
    187. D(H  27,N  26,C   4,C   5)     39.7305         0.023047   
    188. D(H  27,N  26,C   4,C   3)   -144.2813         0.023047   
    -----------------------------------------------------------------

Number of atoms                         .... 34
Number of degrees of freedom            .... 188

         *************************************************************
         *                GEOMETRY OPTIMIZATION CYCLE   1            *
         *************************************************************
---------------------------------
CARTESIAN COORDINATES (ANGSTROEM)
---------------------------------
  C     -0.145000   -2.826800   -0.263400
  C     -0.964100   -1.576200   -0.113700
  C     -2.347400   -1.682600   -0.087300
  C     -3.160500   -0.567600   -0.004400
  C     -2.607500    0.700700    0.063700
  C     -1.211900    0.827400    0.088900
  C     -0.392200   -0.304700   -0.006100
  N      1.003900   -0.024300    0.035000
  C      1.845700   -0.758400    0.951200
  C      3.072700    0.098800    1.269100
  C      3.830800    0.400000   -0.021100
  C      2.896500    1.073400   -1.023000
  C      1.649900    0.214700   -1.238600
  H      0.942800    0.729800   -1.892300
  H      1.947000   -0.729600   -1.730400
  H      3.406100    1.225600   -1.976200
  H      2.595700    2.050400   -0.639300
  H      4.690200    1.041500    0.184200
  H      4.203800   -0.535500   -0.445900
  H      3.717000   -0.427500    1.975600
  H      2.750000    1.034000    1.730900
  H      1.274800   -0.960400    1.860500
  H      2.198200   -1.718000    0.537800
  N     -0.630800    2.097600    0.151300
  H      0.354900    2.011600    0.373200
  H     -1.114200    2.721800    0.783000
  N     -3.402300    1.846900    0.190400
  H     -3.035000    2.642800   -0.312600
  H     -4.373200    1.679300   -0.032800
  H     -4.235800   -0.678900   -0.003900
  H     -2.801800   -2.660600   -0.156900
  H      0.279300   -3.135700    0.692300
  H      0.668800   -2.682100   -0.970400
  H     -0.772300   -3.637600   -0.628300

----------------------------
CARTESIAN COORDINATES (A.U.)
----------------------------
  NO LB      ZA    FRAG     MASS         X           Y           Z
   0 C     6.0000    0    12.011   -0.274010   -5.341878   -0.497754
   1 C     6.0000    0    12.011   -1.821885   -2.978586   -0.214862
   2 C     6.0000    0    12.011   -4.435943   -3.179653   -0.164973
   3 C     6.0000    0    12.011   -5.972479   -1.072609   -0.008315
   4 C     6.0000    0    12.011   -4.927461    1.324131    0.120376
   5 C     6.0000    0    12.011   -2.290159    1.563559    0.167997
   6 C     6.0000    0    12.011   -0.741151   -0.575800   -0.011527
   7 N     7.0000    0    14.007    1.897096   -0.045920    0.066140
   8 C     6.0000    0    12.011    3.487868   -1.433168    1.797507
   9 C     6.0000    0    12.011    5.806561    0.186705    2.398251
  10 C     6.0000    0    12.011    7.239163    0.755890   -0.039873
  11 C     6.0000    0    12.011    5.473592    2.028432   -1.933190
  12 C     6.0000    0    12.011    3.117859    0.405724   -2.340615
  13 H     1.0000    0     1.008    1.781634    1.379122   -3.575929
  14 H     1.0000    0     1.008    3.679297   -1.378744   -3.269982
  15 H     1.0000    0     1.008    6.436596    2.316048   -3.734477
  16 H     1.0000    0     1.008    4.905162    3.874694   -1.208102
  17 H     1.0000    0     1.008    8.863194    1.968150    0.348088
  18 H     1.0000    0     1.008    7.944031   -1.011948   -0.842629
  19 H     1.0000    0     1.008    7.024112   -0.807858    3.733343
  20 H     1.0000    0     1.008    5.196747    1.953977    3.270927
  21 H     1.0000    0     1.008    2.409023   -1.814893    3.515835
  22 H     1.0000    0     1.008    4.153996   -3.246549    1.016295
  23 N     7.0000    0    14.007   -1.192039    3.963890    0.285916
  24 H     1.0000    0     1.008    0.670664    3.801373    0.705246
  25 H     1.0000    0     1.008   -2.105533    5.143457    1.479656
  26 N     7.0000    0    14.007   -6.429415    3.490135    0.359804
  27 H     1.0000    0     1.008   -5.735319    4.994168   -0.590728
  28 H     1.0000    0     1.008   -8.264150    3.173417   -0.061983
  29 H     1.0000    0     1.008   -8.004502   -1.282935   -0.007370
  30 H     1.0000    0     1.008   -5.294635   -5.027805   -0.296498
  31 H     1.0000    0     1.008    0.527801   -5.925614    1.308257
  32 H     1.0000    0     1.008    1.263849   -5.068434   -1.833790
  33 H     1.0000    0     1.008   -1.459435   -6.874068   -1.187315

--------------------------------
INTERNAL COORDINATES (ANGSTROEM)
--------------------------------
 C      0   0   0     0.000000000000     0.00000000     0.00000000
 C      1   0   0     1.502443097092     0.00000000     0.00000000
 C      2   1   0     1.387637131962   118.78642561     0.00000000
 C      3   2   1     1.382472068434   121.70930169   182.55882161
 C      4   3   2     1.385291124638   120.43598082   359.59243527
 C      5   4   3     1.401566013429   118.76009215   358.03775393
 C      2   1   3     1.398341739347   122.79065324   180.32797787
 N      7   2   1     1.424573122026   125.59180346   357.16050830
 C      8   7   2     1.444628841606   119.29719531   310.41201905
 C      9   8   7     1.530157263160   108.32170005   205.33070781
 C     10   9   8     1.526451142356   109.46218365   300.30574244
 C     11  10   9     1.526495221087   109.74477490    56.28450012
 C      8   7   2     1.447927470559   116.38176017    90.49256672
 H     13   8   7     1.092081549153   108.39056975    34.67003582
 H     13   8   7     1.105367875415   111.73153830   275.66200255
 H     12  11  10     1.091534351269   110.42145921   184.26435791
 H     12  11  10     1.091895292599   109.43218446    65.38685506
 H     11  10   9     1.091896835786   110.35886829   177.97008620
 H     11  10   9     1.093043590165   109.21341894   296.42379423
 H     10   9   8     1.091446943282   109.73754471   178.96360968
 H     10   9   8     1.091784580400   109.31267250    60.34845907
 H      9   8   7     1.092500480549   108.50064013   325.28069181
 H      9   8   7     1.102718445479   112.99912942    85.71230977
 N      6   5   4     1.398205639382   119.78589348   179.70873652
 H     24   6   5     1.014021745329   109.67692116   167.21023096
 H     24   6   5     1.011111314347   112.95511465    41.04148278
 N      5   4   3     1.400547882080   121.81554448   182.02830587
 H     27   5   4     1.010631040489   113.15598525   215.71872587
 H     27   5   4     1.010225128375   112.93207171   343.87976757
 H      4   3   2     1.081044878809   120.13339041   178.87535365
 H      3   2   1     1.080651433164   119.16596612     1.08552289
 H      1   2   3     1.090326643717   111.13959639   257.57598214
 H      1   2   3     1.087684480904   111.21874990   136.65342864
 H      1   2   3     1.088142426339   109.83715608    16.89053520

---------------------------
INTERNAL COORDINATES (A.U.)
---------------------------
 C      0   0   0     0.000000000000     0.00000000     0.00000000
 C      1   0   0     2.839205985305     0.00000000     0.00000000
 C      2   1   0     2.622254152668   118.78642561     0.00000000
 C      3   2   1     2.612493597136   121.70930169   182.55882161
 C      4   3   2     2.617820841317   120.43598082   359.59243527
 C      5   4   3     2.648575923993   118.76009215   358.03775393
 C      2   1   3     2.642482928997   122.79065324   180.32797787
 N      7   2   1     2.692053058375   125.59180346   357.16050830
 C      8   7   2     2.729952875799   119.29719531   310.41201905
 C      9   8   7     2.891578169202   108.32170005   205.33070781
 C     10   9   8     2.884574615864   109.46218365   300.30574244
 C     11  10   9     2.884657912593   109.74477490    56.28450012
 C      8   7   2     2.736186381138   116.38176017    90.49256672
 H     13   8   7     2.063735043807   108.39056975    34.67003582
 H     13   8   7     2.088842561769   111.73153830   275.66200255
 H     12  11  10     2.062700989666   110.42145921   184.26435791
 H     12  11  10     2.063383069930   109.43218446    65.38685506
 H     11  10   9     2.063385986131   110.35886829   177.97008620
 H     11  10   9     2.065553037849   109.21341894   296.42379423
 H     10   9   8     2.062535812509   109.73754471   178.96360968
 H     10   9   8     2.063173854195   109.31267250    60.34845907
 H      9   8   7     2.064526709415   108.50064013   325.28069181
 H      9   8   7     2.083835864779   112.99912942    85.71230977
 N      6   5   4     2.642225737336   119.78589348   179.70873652
 H     24   6   5     1.916223392513   109.67692116   167.21023096
 H     24   6   5     1.910723475025   112.95511465    41.04148278
 N      5   4   3     2.646651934575   121.81554448   182.02830587
 H     27   5   4     1.909815888964   113.15598525   215.71872587
 H     27   5   4     1.909048826234   112.93207171   343.87976757
 H      4   3   2     2.042878759428   120.13339041   178.87535365
 H      3   2   1     2.042135254910   119.16596612     1.08552289
 H      1   2   3     2.060418753143   111.13959639   257.57598214
 H      1   2   3     2.055425789025   111.21874990   136.65342864
 H      1   2   3     2.056291180482   109.83715608    16.89053520

---------------------
BASIS SET INFORMATION
---------------------
There are 3 groups of distinct atoms

 Group   1 Type C   : 7s4p1d contracted to 3s2p1d pattern {511/31/1}
 Group   2 Type N   : 7s4p1d contracted to 3s2p1d pattern {511/31/1}
 Group   3 Type H   : 4s1p contracted to 2s1p pattern {31/1}

Atom   0C    basis set group =>   1
Atom   1C    basis set group =>   1
Atom   2C    basis set group =>   1
Atom   3C    basis set group =>   1
Atom   4C    basis set group =>   1
Atom   5C    basis set group =>   1
Atom   6C    basis set group =>   1
Atom   7N    basis set group =>   2
Atom   8C    basis set group =>   1
Atom   9C    basis set group =>   1
Atom  10C    basis set group =>   1
Atom  11C    basis set group =>   1
Atom  12C    basis set group =>   1
Atom  13H    basis set group =>   3
Atom  14H    basis set group =>   3
Atom  15H    basis set group =>   3
Atom  16H    basis set group =>   3
Atom  17H    basis set group =>   3
Atom  18H    basis set group =>   3
Atom  19H    basis set group =>   3
Atom  20H    basis set group =>   3
Atom  21H    basis set group =>   3
Atom  22H    basis set group =>   3
Atom  23N    basis set group =>   2
Atom  24H    basis set group =>   3
Atom  25H    basis set group =>   3
Atom  26N    basis set group =>   2
Atom  27H    basis set group =>   3
Atom  28H    basis set group =>   3
Atom  29H    basis set group =>   3
Atom  30H    basis set group =>   3
Atom  31H    basis set group =>   3
Atom  32H    basis set group =>   3
Atom  33H    basis set group =>   3
------------------------------------------------------------------------------
                           ORCA GTO INTEGRAL CALCULATION
------------------------------------------------------------------------------

                         BASIS SET STATISTICS AND STARTUP INFO

 # of primitive gaussian shells          ...  275
 # of primitive gaussian functions       ...  493
 # of contracted shells                  ...  147
 # of contracted basis functions         ...  305
 Highest angular momentum                ...    2
 Maximum contraction depth               ...    5
 Integral package used                   ... LIBINT
 Integral threshhold            Thresh   ...  2.500e-11
 Primitive cut-off              TCut     ...  2.500e-12


------------------------------ INTEGRAL EVALUATION ----------------------------


 * One electron integrals 
 Pre-screening matrix                    ... done
 Shell pair data                         ... done (   0.003 sec)

-------------------------------------------------------------------------------
                                 ORCA SCF
-------------------------------------------------------------------------------

------------
SCF SETTINGS
------------
Hamiltonian:
 Density Functional     Method          .... DFT(GTOs)
 Exchange Functional    Exchange        .... WB97X-D3
 Correlation Functional Correlation     .... WB97X-D3
 Gradients option       PostSCFGGA      .... off
 Hybrid DFT is turned on
   Fraction HF Exchange ScalHFX         ....  0.195728
   Scaling of DF-GGA-X  ScalDFX         ....  0.000000
   Scaling of DF-GGA-C  ScalDFC         ....  1.000000
   Scaling of DF-LDA-C  ScalLDAC        ....  1.000000
   Perturbative correction              ....  0.000000
   Density functional embedding theory  .... OFF
 Long-range corrected/Screened/Range-Separated Hybrid DFT is turned on
   Amount of maximum screened exact exchange              ....  0.804272
   Range separation parameter mu (erf(mu*r12)/r12)        ....  0.250000


General Settings:
 Integral files         IntName         .... 053827465
 Hartree-Fock type      HFTyp           .... RHF
 Total Charge           Charge          ....    0
 Multiplicity           Mult            ....    1
 Number of Electrons    NEL             ....  112
 Basis Dimension        Dim             ....  305
 Nuclear Repulsion      ENuc            ....   1047.3979479734 Eh

Convergence Acceleration:
 DIIS                   CNVDIIS         .... on
   Start iteration      DIISMaxIt       ....    12
   Startup error        DIISStart       ....  0.200000
   # of expansion vecs  DIISMaxEq       ....     5
   Bias factor          DIISBfac        ....   1.050
   Max. coefficient     DIISMaxC        ....  10.000
 Newton-Raphson         CNVNR           .... off
 SOSCF                  CNVSOSCF        .... on
   Start iteration      SOSCFMaxIt      ....   150
   Startup grad/error   SOSCFStart      ....  0.003300
 Level Shifting         CNVShift        .... on
   Level shift para.    LevelShift      ....    0.2500
   Turn off err/grad.   ShiftErr        ....    0.0010
 Zerner damping         CNVZerner       .... off
 Static damping         CNVDamp         .... on
   Fraction old density DampFac         ....    0.7000
   Max. Damping (<1)    DampMax         ....    0.9800
   Min. Damping (>=0)   DampMin         ....    0.0000
   Turn off err/grad.   DampErr         ....    0.1000
 Fernandez-Rico         CNVRico         .... off

SCF Procedure:
 Maximum # iterations   MaxIter         ....   125
 SCF integral mode      SCFMode         .... Direct
   Integral package                     .... LIBINT
 Reset frequency        DirectResetFreq ....    20
 Integral Threshold     Thresh          ....  2.500e-11 Eh
 Primitive CutOff       TCut            ....  2.500e-12 Eh

Convergence Tolerance:
 Convergence Check Mode ConvCheckMode   .... Total+1el-Energy
 Convergence forced     ConvForced      .... 0
 Energy Change          TolE            ....  1.000e-08 Eh
 1-El. energy change                    ....  1.000e-05 Eh
 Orbital Gradient       TolG            ....  1.000e-05
 Orbital Rotation angle TolX            ....  1.000e-05
 DIIS Error             TolErr          ....  5.000e-07


Diagonalization of the overlap matrix:
Smallest eigenvalue                        ... 1.184e-04
Time for diagonalization                   ...    0.012 sec
Threshold for overlap eigenvalues          ... 1.000e-08
Number of eigenvalues below threshold      ... 0
Time for construction of square roots      ...    0.005 sec
Total time needed                          ...    0.018 sec

-------------------
DFT GRID GENERATION
-------------------

General Integration Accuracy     IntAcc      ...  4.340
Radial Grid Type                 RadialGrid  ... Gauss-Chebyshev
Angular Grid (max. acc.)         AngularGrid ... Lebedev-110
Angular grid pruning method      GridPruning ... 3 (G Style)
Weight generation scheme         WeightScheme... Becke
Basis function cutoff            BFCut       ...    1.0000e-11
Integration weight cutoff        WCut        ...    1.0000e-14
Grids for H and He will be reduced by one unit

# of grid points (after initial pruning)     ...  40064 (   0.0 sec)
# of grid points (after weights+screening)   ...  35584 (   0.2 sec)
nearest neighbour list constructed           ...    0.0 sec
Grid point re-assignment to atoms done       ...    0.0 sec
Grid point division into batches done        ...    0.0 sec
Reduced shell lists constructed in    0.3 sec

Total number of grid points                  ...    35584
Total number of batches                      ...      572
Average number of points per batch           ...       62
Average number of grid points per atom       ...     1047
Average number of shells per batch           ...    89.05 (60.58%)
Average number of basis functions per batch  ...   174.86 (57.33%)
Average number of large shells per batch     ...    62.33 (70.00%)
Average number of large basis fcns per batch ...   121.38 (69.42%)
Maximum spatial batch extension              ...  18.84, 18.53, 22.77 au
Average spatial batch extension              ...   3.12,  3.22,  3.61 au

Time for grid setup =    0.597 sec

------------------------------
INITIAL GUESS: MODEL POTENTIAL
------------------------------
Loading Hartree-Fock densities                     ... done
Calculating cut-offs                               ... done
Setting up the integral package                    ... done
Initializing the effective Hamiltonian             ... done
Starting the Coulomb interaction                   ... done (   0.5 sec)
Reading the grid                                   ... done
Mapping shells                                     ... done
Starting the XC term evaluation                    ... done (   0.5 sec)
  promolecular density results
     # of electrons  =    111.978858904
     EX              =    -86.733774808
     EC              =     -3.754173330
     EX+EC           =    -90.487948139
Transforming the Hamiltonian                       ... done (   0.0 sec)
Diagonalizing the Hamiltonian                      ... done (   0.0 sec)
Back transforming the eigenvectors                 ... done (   0.0 sec)
Now organizing SCF variables                       ... done
                      ------------------
                      INITIAL GUESS DONE (   1.7 sec)
                      ------------------
--------------
SCF ITERATIONS
--------------
ITER       Energy         Delta-E        Max-DP      RMS-DP      [F,P]     Damp
               ***  Starting incremental Fock matrix formation  ***
  0   -631.9741508437   0.000000000000 0.07093659  0.00185957  0.2112951 0.7000
  1   -632.1276210689  -0.153470225225 0.04398766  0.00134678  0.1189910 0.7000
                               ***Turning on DIIS***
  2   -632.2078812828  -0.080260213907 0.08741630  0.00275241  0.0567053 0.0000
  3   -632.3385127055  -0.130631422707 0.03432052  0.00073551  0.0485329 0.0000
  4   -632.3570626929  -0.018549987417 0.00523962  0.00018648  0.0070021 0.0000
                      *** Initiating the SOSCF procedure ***
                           *** Shutting down DIIS ***
                      *** Re-Reading the Fockian *** 
                      *** Removing any level shift *** 
ITER      Energy       Delta-E        Grad      Rot      Max-DP    RMS-DP
  5   -632.35751766  -0.0004549695  0.000772  0.000772  0.002230  0.000063
               *** Restarting incremental Fock matrix formation ***
  6   -632.35756704  -0.0000493804  0.000433  0.001146  0.001025  0.000038
  7   -632.35757590  -0.0000088562  0.000204  0.000966  0.000678  0.000024
  8   -632.35757737  -0.0000014751  0.000073  0.000136  0.000185  0.000007
  9   -632.35757775  -0.0000003739  0.000025  0.000047  0.000069  0.000002
 10   -632.35757777  -0.0000000225  0.000011  0.000028  0.000026  0.000001
 11   -632.35757778  -0.0000000090  0.000005  0.000020  0.000013  0.000000
 12   -632.35757778   0.0000000042  0.000003  0.000007  0.000006  0.000000
                  ***Gradient check signals convergence***
              ***Rediagonalizing the Fockian in SOSCF/NRSCF***

               *****************************************************
               *                     SUCCESS                       *
               *           SCF CONVERGED AFTER  13 CYCLES          *
               *****************************************************

Setting up the final grid:

General Integration Accuracy     IntAcc      ...  4.670
Radial Grid Type                 RadialGrid  ... Gauss-Chebyshev
Angular Grid (max. acc.)         AngularGrid ... Lebedev-302
Angular grid pruning method      GridPruning ... 3 (G Style)
Weight generation scheme         WeightScheme... Becke
Basis function cutoff            BFCut       ...    1.0000e-11
Integration weight cutoff        WCut        ...    1.0000e-14
Grids for H and He will be reduced by one unit

# of grid points (after initial pruning)     ... 157666 (   0.1 sec)
# of grid points (after weights+screening)   ... 137026 (   0.9 sec)
nearest neighbour list constructed           ...    0.0 sec
Grid point re-assignment to atoms done       ...    0.0 sec
Grid point division into batches done        ...    0.4 sec
Reduced shell lists constructed in    1.5 sec

Total number of grid points                  ...   137026
Total number of batches                      ...     2157
Average number of points per batch           ...       63
Average number of grid points per atom       ...     4030
Average number of shells per batch           ...    81.44 (55.40%)
Average number of basis functions per batch  ...   158.31 (51.90%)
Average number of large shells per batch     ...    55.87 (68.59%)
Average number of large basis fcns per batch ...   107.74 (68.06%)
Maximum spatial batch extension              ...  18.05, 19.37, 19.94 au
Average spatial batch extension              ...   2.12,  2.16,  2.25 au

Final grid set up in    2.5 sec
Final integration                            ... done (   2.6 sec)
Change in XC energy                          ...     0.001743549
Integrated number of electrons               ...   111.999806548
Previous integrated no of electrons          ...   111.995338827

----------------
TOTAL SCF ENERGY
----------------

Total Energy       :         -632.35583423 Eh          -17207.27705 eV

Components:
Nuclear Repulsion  :         1047.39794797 Eh           28501.14713 eV
Electronic Energy  :        -1679.75378220 Eh          -45708.42419 eV
One Electron Energy:        -2934.57134013 Eh          -79853.74585 eV
Two Electron Energy:         1254.81755793 Eh           34145.32167 eV

Virial components:
Potential Energy   :        -1257.86168740 Eh          -34228.15664 eV
Kinetic Energy     :          625.50585317 Eh           17020.87959 eV
Virial Ratio       :            2.01095111


DFT components:
N(Alpha)           :       55.999903274028 electrons
N(Beta)            :       55.999903274028 electrons
N(Total)           :      111.999806548055 electrons
E(XC)              :      -63.554229098871 Eh       
DFET-embed. en.    :        0.000000000000 Eh       

---------------
SCF CONVERGENCE
---------------

  Last Energy change         ...   -5.8537e-10  Tolerance :   1.0000e-08
  Last MAX-Density change    ...    1.4869e-06  Tolerance :   1.0000e-07
  Last RMS-Density change    ...    5.0694e-08  Tolerance :   5.0000e-09
  Last Orbital Gradient      ...    5.3021e-07  Tolerance :   1.0000e-05
  Last Orbital Rotation      ...    1.6121e-06  Tolerance :   1.0000e-05

             **** THE GBW FILE WAS UPDATED (053827465.gbw) ****
             **** DENSITY FILE WAS UPDATED (053827465.scfp) ****
             **** ENERGY FILE WAS UPDATED (053827465.en.tmp) ****
             **** THE GBW FILE WAS UPDATED (053827465.gbw) ****
             **** DENSITY FILE WAS UPDATED (053827465.scfp) ****
----------------
ORBITAL ENERGIES
----------------

  NO   OCC          E(Eh)            E(eV) 
   0   2.0000     -14.424722      -392.5166 
   1   2.0000     -14.419955      -392.3869 
   2   2.0000     -14.416576      -392.2950 
   3   2.0000     -10.306607      -280.4570 
   4   2.0000     -10.305877      -280.4372 
   5   2.0000     -10.305124      -280.4167 
   6   2.0000     -10.303594      -280.3750 
   7   2.0000     -10.298084      -280.2251 
   8   2.0000     -10.279571      -279.7214 
   9   2.0000     -10.278377      -279.6889 
  10   2.0000     -10.277612      -279.6680 
  11   2.0000     -10.274315      -279.5783 
  12   2.0000     -10.273919      -279.5676 
  13   2.0000     -10.268689      -279.4252 
  14   2.0000     -10.264351      -279.3072 
  15   2.0000      -1.055755       -28.7286 
  16   2.0000      -1.026454       -27.9312 
  17   2.0000      -0.984169       -26.7806 
  18   2.0000      -0.939160       -25.5558 
  19   2.0000      -0.902938       -24.5702 
  20   2.0000      -0.863092       -23.4859 
  21   2.0000      -0.852726       -23.2038 
  22   2.0000      -0.821690       -22.3593 
  23   2.0000      -0.775825       -21.1113 
  24   2.0000      -0.741660       -20.1816 
  25   2.0000      -0.729566       -19.8525 
  26   2.0000      -0.697413       -18.9776 
  27   2.0000      -0.681617       -18.5477 
  28   2.0000      -0.657145       -17.8818 
  29   2.0000      -0.628232       -17.0951 
  30   2.0000      -0.618601       -16.8330 
  31   2.0000      -0.586579       -15.9616 
  32   2.0000      -0.571012       -15.5380 
  33   2.0000      -0.561473       -15.2785 
  34   2.0000      -0.558689       -15.2027 
  35   2.0000      -0.544699       -14.8220 
  36   2.0000      -0.539969       -14.6933 
  37   2.0000      -0.522275       -14.2118 
  38   2.0000      -0.513911       -13.9842 
  39   2.0000      -0.510081       -13.8800 
  40   2.0000      -0.508073       -13.8254 
  41   2.0000      -0.500757       -13.6263 
  42   2.0000      -0.483334       -13.1522 
  43   2.0000      -0.476402       -12.9636 
  44   2.0000      -0.468393       -12.7456 
  45   2.0000      -0.442568       -12.0429 
  46   2.0000      -0.439684       -11.9644 
  47   2.0000      -0.437960       -11.9175 
  48   2.0000      -0.422493       -11.4966 
  49   2.0000      -0.407767       -11.0959 
  50   2.0000      -0.405003       -11.0207 
  51   2.0000      -0.398261       -10.8372 
  52   2.0000      -0.384948       -10.4750 
  53   2.0000      -0.315535        -8.5861 
  54   2.0000      -0.286546        -7.7973 
  55   2.0000      -0.260374        -7.0851 
  56   0.0000       0.091539         2.4909 
  57   0.0000       0.106162         2.8888 
  58   0.0000       0.136910         3.7255 
  59   0.0000       0.145000         3.9456 
  60   0.0000       0.157855         4.2955 
  61   0.0000       0.174310         4.7432 
  62   0.0000       0.174951         4.7607 
  63   0.0000       0.179235         4.8772 
  64   0.0000       0.198809         5.4099 
  65   0.0000       0.204919         5.5761 
  66   0.0000       0.213114         5.7991 
  67   0.0000       0.216213         5.8834 
  68   0.0000       0.223187         6.0732 
  69   0.0000       0.228493         6.2176 
  70   0.0000       0.229174         6.2361 
  71   0.0000       0.239113         6.5066 
  72   0.0000       0.245460         6.6793 
  73   0.0000       0.253547         6.8994 
  74   0.0000       0.258973         7.0470 
  75   0.0000       0.266960         7.2644 
  76   0.0000       0.280440         7.6312 
  77   0.0000       0.287843         7.8326 
  78   0.0000       0.307362         8.3637 
  79   0.0000       0.320529         8.7220 
  80   0.0000       0.326364         8.8808 
  81   0.0000       0.329258         8.9596 
  82   0.0000       0.349268         9.5041 
  83   0.0000       0.354241         9.6394 
  84   0.0000       0.357936         9.7399 
  85   0.0000       0.371960        10.1216 
  86   0.0000       0.380787        10.3618 
  87   0.0000       0.396693        10.7946 
  88   0.0000       0.417540        11.3618 
  89   0.0000       0.431439        11.7401 
  90   0.0000       0.438709        11.9379 
  91   0.0000       0.459071        12.4920 
  92   0.0000       0.472654        12.8616 
  93   0.0000       0.508965        13.8496 
  94   0.0000       0.526215        14.3190 
  95   0.0000       0.529060        14.3964 
  96   0.0000       0.530907        14.4467 
  97   0.0000       0.544422        14.8145 
  98   0.0000       0.550235        14.9727 
  99   0.0000       0.562630        15.3099 
 100   0.0000       0.570047        15.5118 
 101   0.0000       0.578938        15.7537 
 102   0.0000       0.585540        15.9334 
 103   0.0000       0.595594        16.2069 
 104   0.0000       0.603123        16.4118 
 105   0.0000       0.617737        16.8095 
 106   0.0000       0.628325        17.0976 
 107   0.0000       0.641020        17.4430 
 108   0.0000       0.674114        18.3436 
 109   0.0000       0.681562        18.5462 
 110   0.0000       0.688629        18.7386 
 111   0.0000       0.701951        19.1011 
 112   0.0000       0.705792        19.2056 
 113   0.0000       0.715351        19.4657 
 114   0.0000       0.723899        19.6983 
 115   0.0000       0.724964        19.7273 
 116   0.0000       0.738352        20.0916 
 117   0.0000       0.745542        20.2872 
 118   0.0000       0.749942        20.4070 
 119   0.0000       0.755076        20.5467 
 120   0.0000       0.760182        20.6856 
 121   0.0000       0.766438        20.8558 
 122   0.0000       0.767082        20.8734 
 123   0.0000       0.773330        21.0434 
 124   0.0000       0.777650        21.1609 
 125   0.0000       0.784105        21.3366 
 126   0.0000       0.786558        21.4033 
 127   0.0000       0.793506        21.5924 
 128   0.0000       0.796482        21.6734 
 129   0.0000       0.806135        21.9361 
 130   0.0000       0.808332        21.9958 
 131   0.0000       0.816144        22.2084 
 132   0.0000       0.817952        22.2576 
 133   0.0000       0.821919        22.3655 
 134   0.0000       0.830633        22.6027 
 135   0.0000       0.833723        22.6868 
 136   0.0000       0.835827        22.7440 
 137   0.0000       0.843689        22.9579 
 138   0.0000       0.850452        23.1420 
 139   0.0000       0.865726        23.5576 
 140   0.0000       0.870102        23.6767 
 141   0.0000       0.885420        24.0935 
 142   0.0000       0.886514        24.1233 
 143   0.0000       0.900808        24.5122 
 144   0.0000       0.904182        24.6040 
 145   0.0000       0.920029        25.0352 
 146   0.0000       0.927029        25.2258 
 147   0.0000       0.933901        25.4127 
 148   0.0000       0.953094        25.9350 
 149   0.0000       0.980080        26.6693 
 150   0.0000       0.998457        27.1694 
 151   0.0000       1.003442        27.3050 
 152   0.0000       1.013718        27.5847 
 153   0.0000       1.033562        28.1246 
 154   0.0000       1.057331        28.7715 
 155   0.0000       1.073214        29.2036 
 156   0.0000       1.105912        30.0934 
 157   0.0000       1.118408        30.4334 
 158   0.0000       1.143493        31.1160 
 159   0.0000       1.157085        31.4859 
 160   0.0000       1.197043        32.5732 
 161   0.0000       1.214647        33.0522 
 162   0.0000       1.233463        33.5642 
 163   0.0000       1.243388        33.8343 
 164   0.0000       1.264487        34.4084 
 165   0.0000       1.281015        34.8582 
 166   0.0000       1.287860        35.0445 
 167   0.0000       1.294927        35.2367 
 168   0.0000       1.327739        36.1296 
 169   0.0000       1.332559        36.2608 
 170   0.0000       1.351849        36.7857 
 171   0.0000       1.363463        37.1017 
 172   0.0000       1.379222        37.5305 
 173   0.0000       1.401287        38.1310 
 174   0.0000       1.415727        38.5239 
 175   0.0000       1.421339        38.6766 
 176   0.0000       1.432894        38.9910 
 177   0.0000       1.441533        39.2261 
 178   0.0000       1.465899        39.8891 
 179   0.0000       1.482400        40.3381 
 180   0.0000       1.524614        41.4869 
 181   0.0000       1.572190        42.7815 
 182   0.0000       1.586340        43.1665 
 183   0.0000       1.608606        43.7724 
 184   0.0000       1.632470        44.4218 
 185   0.0000       1.653335        44.9895 
 186   0.0000       1.665342        45.3163 
 187   0.0000       1.691176        46.0192 
 188   0.0000       1.705654        46.4132 
 189   0.0000       1.712649        46.6036 
 190   0.0000       1.747898        47.5627 
 191   0.0000       1.765619        48.0449 
 192   0.0000       1.774429        48.2847 
 193   0.0000       1.795679        48.8629 
 194   0.0000       1.813237        49.3407 
 195   0.0000       1.821751        49.5724 
 196   0.0000       1.832632        49.8684 
 197   0.0000       1.843330        50.1596 
 198   0.0000       1.853701        50.4418 
 199   0.0000       1.861570        50.6559 
 200   0.0000       1.869097        50.8607 
 201   0.0000       1.875485        51.0345 
 202   0.0000       1.878484        51.1162 
 203   0.0000       1.888566        51.3905 
 204   0.0000       1.899008        51.6746 
 205   0.0000       1.903932        51.8086 
 206   0.0000       1.908078        51.9214 
 207   0.0000       1.921798        52.2948 
 208   0.0000       1.930963        52.5442 
 209   0.0000       1.936655        52.6991 
 210   0.0000       1.941330        52.8263 
 211   0.0000       1.943225        52.8779 
 212   0.0000       1.956243        53.2321 
 213   0.0000       1.961322        53.3703 
 214   0.0000       1.962619        53.4056 
 215   0.0000       1.976783        53.7910 
 216   0.0000       1.990493        54.1641 
 217   0.0000       1.993104        54.2351 
 218   0.0000       2.000226        54.4289 
 219   0.0000       2.003945        54.5301 
 220   0.0000       2.020100        54.9697 
 221   0.0000       2.025637        55.1204 
 222   0.0000       2.031448        55.2785 
 223   0.0000       2.048722        55.7486 
 224   0.0000       2.063061        56.1388 
 225   0.0000       2.071925        56.3799 
 226   0.0000       2.088531        56.8318 
 227   0.0000       2.092725        56.9460 
 228   0.0000       2.106062        57.3089 
 229   0.0000       2.116730        57.5991 
 230   0.0000       2.126651        57.8691 
 231   0.0000       2.144504        58.3549 
 232   0.0000       2.159391        58.7600 
 233   0.0000       2.162787        58.8524 
 234   0.0000       2.178592        59.2825 
 235   0.0000       2.185404        59.4679 
 236   0.0000       2.209125        60.1134 
 237   0.0000       2.226174        60.5773 
 238   0.0000       2.239077        60.9284 
 239   0.0000       2.246294        61.1248 
 240   0.0000       2.260862        61.5212 
 241   0.0000       2.269897        61.7670 
 242   0.0000       2.293824        62.4181 
 243   0.0000       2.311266        62.8927 
 244   0.0000       2.331011        63.4300 
 245   0.0000       2.351844        63.9969 
 246   0.0000       2.355171        64.0875 
 247   0.0000       2.377473        64.6943 
 248   0.0000       2.389412        65.0192 
 249   0.0000       2.404258        65.4232 
 250   0.0000       2.418055        65.7986 
 251   0.0000       2.433955        66.2313 
 252   0.0000       2.444935        66.5301 
 253   0.0000       2.464704        67.0680 
 254   0.0000       2.486169        67.6521 
 255   0.0000       2.505787        68.1859 
 256   0.0000       2.541162        69.1485 
 257   0.0000       2.556012        69.5526 
 258   0.0000       2.567581        69.8674 
 259   0.0000       2.570789        69.9547 
 260   0.0000       2.578867        70.1745 
 261   0.0000       2.615700        71.1768 
 262   0.0000       2.635070        71.7039 
 263   0.0000       2.645311        71.9826 
 264   0.0000       2.672708        72.7281 
 265   0.0000       2.681170        72.9584 
 266   0.0000       2.697001        73.3891 
 267   0.0000       2.704567        73.5950 
 268   0.0000       2.746825        74.7449 
 269   0.0000       2.752435        74.8976 
 270   0.0000       2.757694        75.0407 
 271   0.0000       2.782253        75.7090 
 272   0.0000       2.821692        76.7821 
 273   0.0000       2.828326        76.9627 
 274   0.0000       2.842226        77.3409 
 275   0.0000       2.859611        77.8140 
 276   0.0000       2.889507        78.6275 
 277   0.0000       2.906163        79.0807 
 278   0.0000       2.947821        80.2143 
 279   0.0000       2.951166        80.3053 
 280   0.0000       2.992225        81.4226 
 281   0.0000       3.009079        81.8812 
 282   0.0000       3.014563        82.0304 
 283   0.0000       3.027498        82.3824 
 284   0.0000       3.030162        82.4549 
 285   0.0000       3.070659        83.5569 
 286   0.0000       3.076510        83.7161 
 287   0.0000       3.085173        83.9518 
 288   0.0000       3.094523        84.2062 
 289   0.0000       3.108804        84.5949 
 290   0.0000       3.118454        84.8575 
 291   0.0000       3.132526        85.2404 
 292   0.0000       3.169949        86.2587 
 293   0.0000       3.177498        86.4641 
 294   0.0000       3.192351        86.8683 
 295   0.0000       3.202154        87.1350 
 296   0.0000       3.247082        88.3576 
 297   0.0000       3.295262        89.6686 
 298   0.0000       3.300996        89.8247 
 299   0.0000       3.331050        90.6425 
 300   0.0000       3.393110        92.3312 
 301   0.0000       3.429110        93.3108 
 302   0.0000       3.512615        95.5831 
 303   0.0000       3.610669        98.2513 
 304   0.0000       3.772559       102.6566 

                    ********************************
                    * MULLIKEN POPULATION ANALYSIS *
                    ********************************

-----------------------
MULLIKEN ATOMIC CHARGES
-----------------------
   0 C :    0.083567
   1 C :   -0.124978
   2 C :   -0.072122
   3 C :   -0.077225
   4 C :    0.000985
   5 C :   -0.029252
   6 C :    0.043911
   7 N :   -0.443345
   8 C :    0.125850
   9 C :   -0.004776
  10 C :   -0.058036
  11 C :   -0.010649
  12 C :    0.124070
  13 H :    0.042114
  14 H :    0.002542
  15 H :    0.026508
  16 H :    0.015300
  17 H :    0.030368
  18 H :    0.011261
  19 H :    0.024037
  20 H :    0.011936
  21 H :    0.033855
  22 H :   -0.007537
  23 N :   -0.108991
  24 H :    0.111985
  25 H :    0.117366
  26 N :   -0.138345
  27 H :    0.121719
  28 H :    0.111889
  29 H :   -0.029441
  30 H :   -0.019975
  31 H :    0.038430
  32 H :    0.026240
  33 H :    0.020737
Sum of atomic charges:    0.0000000

--------------------------------
MULLIKEN REDUCED ORBITAL CHARGES
--------------------------------
  0 C s       :     2.904223  s :     2.904223
      pz      :     1.012704  p :     2.983955
      px      :     0.990790
      py      :     0.980461
      dz2     :     0.004381  d :     0.028256
      dxz     :     0.007671
      dyz     :     0.004530
      dx2y2   :     0.004151
      dxy     :     0.007522
  1 C s       :     3.074244  s :     3.074244
      pz      :     1.021284  p :     3.007044
      px      :     0.915753
      py      :     1.070007
      dz2     :     0.003099  d :     0.043690
      dxz     :     0.007513
      dyz     :     0.007055
      dx2y2   :     0.013107
      dxy     :     0.012916
  2 C s       :     3.225666  s :     3.225666
      pz      :     1.033791  p :     2.810259
      px      :     0.953724
      py      :     0.822745
      dz2     :     0.002668  d :     0.036196
      dxz     :     0.007042
      dyz     :     0.003428
      dx2y2   :     0.011255
      dxy     :     0.011803
  3 C s       :     3.277493  s :     3.277493
      pz      :     1.055530  p :     2.764732
      px      :     0.763049
      py      :     0.946152
      dz2     :     0.002736  d :     0.035000
      dxz     :     0.002471
      dyz     :     0.007894
      dx2y2   :     0.012473
      dxy     :     0.009426
  4 C s       :     2.962356  s :     2.962356
      pz      :     1.009872  p :     2.976227
      px      :     1.119784
      py      :     0.846571
      dz2     :     0.004487  d :     0.060432
      dxz     :     0.008940
      dyz     :     0.013270
      dx2y2   :     0.016636
      dxy     :     0.017099
  5 C s       :     3.010927  s :     3.010927
      pz      :     1.011046  p :     2.959469
      px      :     0.995552
      py      :     0.952872
      dz2     :     0.004451  d :     0.058856
      dxz     :     0.007999
      dyz     :     0.013931
      dx2y2   :     0.016810
      dxy     :     0.015666
  6 C s       :     3.064637  s :     3.064637
      pz      :     1.069682  p :     2.834317
      px      :     0.848647
      py      :     0.915988
      dz2     :     0.004131  d :     0.057135
      dxz     :     0.008104
      dyz     :     0.007562
      dx2y2   :     0.016380
      dxy     :     0.020957
  7 N s       :     3.453864  s :     3.453864
      pz      :     1.224254  p :     3.961493
      px      :     1.111441
      py      :     1.625799
      dz2     :     0.006640  d :     0.027987
      dxz     :     0.007734
      dyz     :     0.003941
      dx2y2   :     0.004319
      dxy     :     0.005353
  8 C s       :     2.979024  s :     2.979024
      pz      :     0.930430  p :     2.843843
      px      :     0.941964
      py      :     0.971449
      dz2     :     0.008331  d :     0.051283
      dxz     :     0.012880
      dyz     :     0.008317
      dx2y2   :     0.009350
      dxy     :     0.012405
  9 C s       :     2.997990  s :     2.997990
      pz      :     1.000395  p :     2.971139
      px      :     0.976253
      py      :     0.994491
      dz2     :     0.005471  d :     0.035647
      dxz     :     0.008993
      dyz     :     0.007818
      dx2y2   :     0.005260
      dxy     :     0.008105
 10 C s       :     3.034829  s :     3.034829
      pz      :     0.974829  p :     2.986470
      px      :     1.015343
      py      :     0.996298
      dz2     :     0.007921  d :     0.036737
      dxz     :     0.008364
      dyz     :     0.007233
      dx2y2   :     0.004521
      dxy     :     0.008699
 11 C s       :     3.001353  s :     3.001353
      pz      :     0.989082  p :     2.973577
      px      :     0.974860
      py      :     1.009635
      dz2     :     0.006959  d :     0.035719
      dxz     :     0.008314
      dyz     :     0.005208
      dx2y2   :     0.007153
      dxy     :     0.008085
 12 C s       :     2.979878  s :     2.979878
      pz      :     0.873987  p :     2.844841
      px      :     0.964855
      py      :     1.005998
      dz2     :     0.009665  d :     0.051211
      dxz     :     0.012480
      dyz     :     0.012669
      dx2y2   :     0.006579
      dxy     :     0.009818
 13 H s       :     0.936242  s :     0.936242
      pz      :     0.006704  p :     0.021644
      px      :     0.008208
      py      :     0.006733
 14 H s       :     0.976413  s :     0.976413
      pz      :     0.005101  p :     0.021045
      px      :     0.004511
      py      :     0.011432
 15 H s       :     0.951286  s :     0.951286
      pz      :     0.011570  p :     0.022207
      px      :     0.006180
      py      :     0.004456
 16 H s       :     0.962093  s :     0.962093
      pz      :     0.005555  p :     0.022607
      px      :     0.004781
      py      :     0.012271
 17 H s       :     0.947485  s :     0.947485
      pz      :     0.004277  p :     0.022147
      px      :     0.010031
      py      :     0.007838
 18 H s       :     0.966200  s :     0.966200
      pz      :     0.005442  p :     0.022539
      px      :     0.005291
      py      :     0.011806
 19 H s       :     0.953506  s :     0.953506
      pz      :     0.008195  p :     0.022456
      px      :     0.007617
      py      :     0.006645
 20 H s       :     0.965710  s :     0.965710
      pz      :     0.005825  p :     0.022354
      px      :     0.004958
      py      :     0.011571
 21 H s       :     0.944962  s :     0.944962
      pz      :     0.010753  p :     0.021183
      px      :     0.006156
      py      :     0.004275
 22 H s       :     0.985984  s :     0.985984
      pz      :     0.004830  p :     0.021553
      px      :     0.004576
      py      :     0.012146
 23 N s       :     3.290782  s :     3.290782
      pz      :     1.563833  p :     3.799671
      px      :     1.076399
      py      :     1.159439
      dz2     :     0.002132  d :     0.018538
      dxz     :     0.003176
      dyz     :     0.004397
      dx2y2   :     0.005020
      dxy     :     0.003813
 24 H s       :     0.839735  s :     0.839735
      pz      :     0.012427  p :     0.048280
      px      :     0.026445
      py      :     0.009408
 25 H s       :     0.836482  s :     0.836482
      pz      :     0.017403  p :     0.046152
      px      :     0.013011
      py      :     0.015738
 26 N s       :     3.313921  s :     3.313921
      pz      :     1.657244  p :     3.806075
      px      :     1.050215
      py      :     1.098616
      dz2     :     0.001647  d :     0.018349
      dxz     :     0.002975
      dyz     :     0.004897
      dx2y2   :     0.004690
      dxy     :     0.004140
 27 H s       :     0.832295  s :     0.832295
      pz      :     0.016145  p :     0.045986
      px      :     0.010903
      py      :     0.018937
 28 H s       :     0.842509  s :     0.842509
      pz      :     0.013802  p :     0.045603
      px      :     0.023334
      py      :     0.008466
 29 H s       :     1.005944  s :     1.005944
      pz      :     0.005319  p :     0.023496
      px      :     0.014633
      py      :     0.003544
 30 H s       :     0.996594  s :     0.996594
      pz      :     0.005289  p :     0.023381
      px      :     0.005252
      py      :     0.012840
 31 H s       :     0.937126  s :     0.937126
      pz      :     0.012616  p :     0.024443
      px      :     0.006490
      py      :     0.005338
 32 H s       :     0.949285  s :     0.949285
      pz      :     0.009472  p :     0.024475
      px      :     0.010401
      py      :     0.004602
 33 H s       :     0.955623  s :     0.955623
      pz      :     0.006239  p :     0.023639
      px      :     0.007859
      py      :     0.009541


                     *******************************
                     * LOEWDIN POPULATION ANALYSIS *
                     *******************************

----------------------
LOEWDIN ATOMIC CHARGES
----------------------
   0 C :   -0.048765
   1 C :   -0.058676
   2 C :   -0.054400
   3 C :   -0.067407
   4 C :   -0.012302
   5 C :   -0.006885
   6 C :   -0.022324
   7 N :   -0.111242
   8 C :    0.033697
   9 C :   -0.042562
  10 C :   -0.042323
  11 C :   -0.043222
  12 C :    0.036008
  13 H :    0.027688
  14 H :    0.002872
  15 H :    0.024723
  16 H :    0.019488
  17 H :    0.023501
  18 H :    0.019080
  19 H :    0.022714
  20 H :    0.019031
  21 H :    0.025745
  22 H :    0.000762
  23 N :   -0.065348
  24 H :    0.055826
  25 H :    0.063627
  26 N :   -0.065368
  27 H :    0.064545
  28 H :    0.068613
  29 H :    0.022494
  30 H :    0.022232
  31 H :    0.030953
  32 H :    0.026807
  33 H :    0.030417

-------------------------------
LOEWDIN REDUCED ORBITAL CHARGES
-------------------------------
  0 C s       :     2.819589  s :     2.819589
      pz      :     1.066975  p :     3.154806
      px      :     1.053273
      py      :     1.034559
      dz2     :     0.011763  d :     0.074370
      dxz     :     0.020377
      dyz     :     0.010846
      dx2y2   :     0.010490
      dxy     :     0.020893
  1 C s       :     2.844130  s :     2.844130
      pz      :     0.995211  p :     3.104717
      px      :     1.066309
      py      :     1.043197
      dz2     :     0.007451  d :     0.109829
      dxz     :     0.014942
      dyz     :     0.014040
      dx2y2   :     0.036510
      dxy     :     0.036887
  2 C s       :     2.844382  s :     2.844382
      pz      :     1.018796  p :     3.114577
      px      :     1.055400
      py      :     1.040381
      dz2     :     0.006303  d :     0.095441
      dxz     :     0.015146
      dyz     :     0.006603
      dx2y2   :     0.032964
      dxy     :     0.034426
  3 C s       :     2.845935  s :     2.845935
      pz      :     1.033372  p :     3.128280
      px      :     1.035571
      py      :     1.059337
      dz2     :     0.006481  d :     0.093192
      dxz     :     0.004265
      dyz     :     0.016951
      dx2y2   :     0.036480
      dxy     :     0.029016
  4 C s       :     2.826710  s :     2.826710
      pz      :     0.997662  p :     3.041161
      px      :     1.037656
      py      :     1.005843
      dz2     :     0.009484  d :     0.144432
      dxz     :     0.018223
      dyz     :     0.026568
      dx2y2   :     0.043951
      dxy     :     0.046207
  5 C s       :     2.833567  s :     2.833567
      pz      :     0.995391  p :     3.031934
      px      :     1.051824
      py      :     0.984719
      dz2     :     0.009839  d :     0.141384
      dxz     :     0.016094
      dyz     :     0.027382
      dx2y2   :     0.044782
      dxy     :     0.043287
  6 C s       :     2.829700  s :     2.829700
      pz      :     1.044387  p :     3.048316
      px      :     0.933809
      py      :     1.070119
      dz2     :     0.009306  d :     0.144308
      dxz     :     0.016204
      dyz     :     0.015785
      dx2y2   :     0.045375
      dxy     :     0.057637
  7 N s       :     3.082918  s :     3.082918
      pz      :     1.240982  p :     3.965451
      px      :     1.138392
      py      :     1.586077
      dz2     :     0.014478  d :     0.062873
      dxz     :     0.019096
      dyz     :     0.007682
      dx2y2   :     0.010619
      dxy     :     0.010998
  8 C s       :     2.829200  s :     2.829200
      pz      :     0.998721  p :     3.013444
      px      :     0.998253
      py      :     1.016470
      dz2     :     0.019650  d :     0.123659
      dxz     :     0.031027
      dyz     :     0.019741
      dx2y2   :     0.021096
      dxy     :     0.032145
  9 C s       :     2.834899  s :     2.834899
      pz      :     1.034065  p :     3.118551
      px      :     1.034497
      py      :     1.049988
      dz2     :     0.013690  d :     0.089112
      dxz     :     0.023004
      dyz     :     0.018951
      dx2y2   :     0.012258
      dxy     :     0.021208
 10 C s       :     2.831902  s :     2.831902
      pz      :     1.028783  p :     3.119772
      px      :     1.036574
      py      :     1.054415
      dz2     :     0.018444  d :     0.090649
      dxz     :     0.022231
      dyz     :     0.017357
      dx2y2   :     0.010339
      dxy     :     0.022279
 11 C s       :     2.834062  s :     2.834062
      pz      :     1.044946  p :     3.119927
      px      :     1.032539
      py      :     1.042442
      dz2     :     0.017390  d :     0.089234
      dxz     :     0.021661
      dyz     :     0.012942
      dx2y2   :     0.016340
      dxy     :     0.020902
 12 C s       :     2.829410  s :     2.829410
      pz      :     0.939762  p :     3.011427
      px      :     1.018515
      py      :     1.053150
      dz2     :     0.023163  d :     0.123155
      dxz     :     0.030348
      dyz     :     0.030046
      dx2y2   :     0.014293
      dxy     :     0.025305
 13 H s       :     0.906431  s :     0.906431
      pz      :     0.021013  p :     0.065881
      px      :     0.024899
      py      :     0.019969
 14 H s       :     0.931837  s :     0.931837
      pz      :     0.017294  p :     0.065291
      px      :     0.014804
      py      :     0.033193
 15 H s       :     0.908285  s :     0.908285
      pz      :     0.033609  p :     0.066992
      px      :     0.019868
      py      :     0.013515
 16 H s       :     0.913356  s :     0.913356
      pz      :     0.016663  p :     0.067156
      px      :     0.015450
      py      :     0.035043
 17 H s       :     0.909769  s :     0.909769
      pz      :     0.014665  p :     0.066730
      px      :     0.029824
      py      :     0.022241
 18 H s       :     0.914063  s :     0.914063
      pz      :     0.017657  p :     0.066857
      px      :     0.016127
      py      :     0.033073
 19 H s       :     0.910148  s :     0.910148
      pz      :     0.024594  p :     0.067138
      px      :     0.023428
      py      :     0.019116
 20 H s       :     0.913803  s :     0.913803
      pz      :     0.017839  p :     0.067167
      px      :     0.015580
      py      :     0.033748
 21 H s       :     0.909155  s :     0.909155
      pz      :     0.032354  p :     0.065100
      px      :     0.019860
      py      :     0.012886
 22 H s       :     0.932858  s :     0.932858
      pz      :     0.014767  p :     0.066381
      px      :     0.015656
      py      :     0.035957
 23 N s       :     3.074265  s :     3.074265
      pz      :     1.560027  p :     3.946528
      px      :     1.163361
      py      :     1.223140
      dz2     :     0.004033  d :     0.044555
      dxz     :     0.006310
      dyz     :     0.009020
      dx2y2   :     0.014323
      dxy     :     0.010870
 24 H s       :     0.810454  s :     0.810454
      pz      :     0.037751  p :     0.133720
      px      :     0.070288
      py      :     0.025681
 25 H s       :     0.810586  s :     0.810586
      pz      :     0.054826  p :     0.125786
      px      :     0.030189
      py      :     0.040771
 26 N s       :     3.069924  s :     3.069924
      pz      :     1.632091  p :     3.951088
      px      :     1.140061
      py      :     1.178936
      dz2     :     0.002802  d :     0.044357
      dxz     :     0.005276
      dyz     :     0.009804
      dx2y2   :     0.014098
      dxy     :     0.012377
 27 H s       :     0.809480  s :     0.809480
      pz      :     0.051864  p :     0.125975
      px      :     0.024437
      py      :     0.049673
 28 H s       :     0.808845  s :     0.808845
      pz      :     0.041195  p :     0.122541
      px      :     0.060942
      py      :     0.020405
 29 H s       :     0.907966  s :     0.907966
      pz      :     0.016642  p :     0.069540
      px      :     0.040740
      py      :     0.012159
 30 H s       :     0.908732  s :     0.908732
      pz      :     0.016464  p :     0.069036
      px      :     0.016615
      py      :     0.035956
 31 H s       :     0.901706  s :     0.901706
      pz      :     0.034455  p :     0.067341
      px      :     0.017451
      py      :     0.015435
 32 H s       :     0.905920  s :     0.905920
      pz      :     0.024994  p :     0.067273
      px      :     0.028571
      py      :     0.013707
 33 H s       :     0.903515  s :     0.903515
      pz      :     0.016161  p :     0.066067
      px      :     0.021839
      py      :     0.028067


                      *****************************
                      * MAYER POPULATION ANALYSIS *
                      *****************************

  NA   - Mulliken gross atomic population
  ZA   - Total nuclear charge
  QA   - Mulliken gross atomic charge
  VA   - Mayer's total valence
  BVA  - Mayer's bonded valence
  FA   - Mayer's free valence

  ATOM       NA         ZA         QA         VA         BVA        FA
  0 C      5.9164     6.0000     0.0836     3.9145     3.9145     0.0000
  1 C      6.1250     6.0000    -0.1250     3.9780     3.9780    -0.0000
  2 C      6.0721     6.0000    -0.0721     3.8352     3.8352     0.0000
  3 C      6.0772     6.0000    -0.0772     3.7948     3.7948    -0.0000
  4 C      5.9990     6.0000     0.0010     4.0436     4.0436    -0.0000
  5 C      6.0293     6.0000    -0.0293     4.2071     4.2071     0.0000
  6 C      5.9561     6.0000     0.0439     4.0143     4.0143    -0.0000
  7 N      7.4433     7.0000    -0.4433     3.0609     3.0609     0.0000
  8 C      5.8741     6.0000     0.1259     4.0035     4.0035     0.0000
  9 C      6.0048     6.0000    -0.0048     4.0662     4.0662     0.0000
 10 C      6.0580     6.0000    -0.0580     4.0723     4.0723     0.0000
 11 C      6.0106     6.0000    -0.0106     4.0757     4.0757    -0.0000
 12 C      5.8759     6.0000     0.1241     3.9743     3.9743    -0.0000
[...]
      px      :     0.004577
      py      :     0.011710
 21 H s       :     0.943259  s :     0.943259
      pz      :     0.010589  p :     0.020928
      px      :     0.006204
      py      :     0.004135
 22 H s       :     0.985883  s :     0.985883
      pz      :     0.004234  p :     0.021422
      px      :     0.004247
      py      :     0.012942
 23 N s       :     3.296632  s :     3.296632
      pz      :     1.545268  p :     3.794802
      px      :     1.071060
      py      :     1.178474
      dz2     :     0.002183  d :     0.018606
      dxz     :     0.003482
      dyz     :     0.004066
      dx2y2   :     0.005196
      dxy     :     0.003680
 24 H s       :     0.839262  s :     0.839262
      pz      :     0.012179  p :     0.047350
      px      :     0.026048
      py      :     0.009123
 25 H s       :     0.832171  s :     0.832171
      pz      :     0.017264  p :     0.045892
      px      :     0.013665
      py      :     0.014963
 26 N s       :     3.328170  s :     3.328170
      pz      :     1.615397  p :     3.803431
      px      :     1.057974
      py      :     1.130060
      dz2     :     0.002157  d :     0.018652
      dxz     :     0.002503
      dyz     :     0.005292
      dx2y2   :     0.004954
      dxy     :     0.003747
 27 H s       :     0.825659  s :     0.825659
      pz      :     0.016733  p :     0.045449
      px      :     0.010794
      py      :     0.017922
 28 H s       :     0.844307  s :     0.844307
      pz      :     0.013200  p :     0.045231
      px      :     0.023613
      py      :     0.008418
 29 H s       :     0.997217  s :     0.997217
      pz      :     0.005086  p :     0.022833
      px      :     0.014375
      py      :     0.003373
 30 H s       :     0.988644  s :     0.988644
      pz      :     0.005169  p :     0.022779
      px      :     0.004998
      py      :     0.012611
 31 H s       :     0.931275  s :     0.931275
      pz      :     0.012414  p :     0.023852
      px      :     0.006141
      py      :     0.005296
 32 H s       :     0.946086  s :     0.946086
      pz      :     0.008723  p :     0.023801
      px      :     0.010571
      py      :     0.004506
 33 H s       :     0.951403  s :     0.951403
      pz      :     0.006482  p :     0.023106
      px      :     0.007211
      py      :     0.009413


                     *******************************
                     * LOEWDIN POPULATION ANALYSIS *
                     *******************************

----------------------
LOEWDIN ATOMIC CHARGES
----------------------
   0 C :   -0.054166
   1 C :   -0.054068
   2 C :   -0.058546
   3 C :   -0.068256
   4 C :   -0.016461
   5 C :   -0.003795
   6 C :   -0.023781
   7 N :   -0.119116
   8 C :    0.032507
   9 C :   -0.046651
  10 C :   -0.045506
  11 C :   -0.047616
  12 C :    0.034825
  13 H :    0.029192
  14 H :    0.001960
  15 H :    0.027652
  16 H :    0.021573
  17 H :    0.025667
  18 H :    0.020735
  19 H :    0.026237
  20 H :    0.020040
  21 H :    0.027402
  22 H :   -0.000023
  23 N :   -0.064608
  24 H :    0.058477
  25 H :    0.066801
  26 N :   -0.071459
  27 H :    0.069496
  28 H :    0.068449
  29 H :    0.025160
  30 H :    0.024721
  31 H :    0.032843
  32 H :    0.028620
  33 H :    0.031697

-------------------------------
LOEWDIN REDUCED ORBITAL CHARGES
-------------------------------
  0 C s       :     2.829369  s :     2.829369
      pz      :     1.067599  p :     3.152675
      px      :     1.051056
      py      :     1.034020
      dz2     :     0.010662  d :     0.072121
      dxz     :     0.018791
      dyz     :     0.012079
      dx2y2   :     0.010553
      dxy     :     0.020037
  1 C s       :     2.851207  s :     2.851207
      pz      :     0.988667  p :     3.095927
      px      :     1.064751
      py      :     1.042509
      dz2     :     0.007360  d :     0.106934
      dxz     :     0.014672
      dyz     :     0.013556
      dx2y2   :     0.035429
      dxy     :     0.035917
  2 C s       :     2.852509  s :     2.852509
      pz      :     1.023169  p :     3.114158
      px      :     1.053595
      py      :     1.037395
      dz2     :     0.006118  d :     0.091879
      dxz     :     0.014465
      dyz     :     0.006326
      dx2y2   :     0.031826
      dxy     :     0.033145
  3 C s       :     2.854324  s :     2.854324
      pz      :     1.030397  p :     3.123257
      px      :     1.034437
      py      :     1.058424
      dz2     :     0.006412  d :     0.090675
      dxz     :     0.004238
      dyz     :     0.016704
      dx2y2   :     0.035106
      dxy     :     0.028215
  4 C s       :     2.830804  s :     2.830804
      pz      :     1.002817  p :     3.043832
      px      :     1.035576
      py      :     1.005439
      dz2     :     0.009422  d :     0.141825
      dxz     :     0.016644
      dyz     :     0.026161
      dx2y2   :     0.044898
      dxy     :     0.044699
  5 C s       :     2.837552  s :     2.837552
      pz      :     0.985831  p :     3.025546
      px      :     1.053644
      py      :     0.986072
      dz2     :     0.010185  d :     0.140696
      dxz     :     0.015752
      dyz     :     0.027622
      dx2y2   :     0.045267
      dxy     :     0.041870
  6 C s       :     2.834413  s :     2.834413
      pz      :     1.049489  p :     3.047681
      px      :     0.931921
      py      :     1.066271
      dz2     :     0.009276  d :     0.141687
      dxz     :     0.015381
      dyz     :     0.014894
      dx2y2   :     0.044863
      dxy     :     0.057274
  7 N s       :     3.079973  s :     3.079973
      pz      :     1.224264  p :     3.978293
      px      :     1.138642
      py      :     1.615386
      dz2     :     0.014519  d :     0.060851
      dxz     :     0.019294
      dyz     :     0.007344
      dx2y2   :     0.009883
      dxy     :     0.009811
  8 C s       :     2.833132  s :     2.833132
      pz      :     0.988672  p :     3.011820
      px      :     1.000387
      py      :     1.022761
      dz2     :     0.022229  d :     0.122541
      dxz     :     0.031158
      dyz     :     0.016254
      dx2y2   :     0.024023
      dxy     :     0.028877
  9 C s       :     2.840089  s :     2.840089
      pz      :     1.033231  p :     3.118409
      px      :     1.034127
      py      :     1.051051
      dz2     :     0.014502  d :     0.088153
      dxz     :     0.022263
      dyz     :     0.017929
      dx2y2   :     0.013847
      dxy     :     0.019612
 10 C s       :     2.838036  s :     2.838036
      pz      :     1.027788  p :     3.118380
      px      :     1.035295
      py      :     1.055297
      dz2     :     0.019655  d :     0.089090
      dxz     :     0.021893
      dyz     :     0.015787
      dx2y2   :     0.010847
      dxy     :     0.020909
 11 C s       :     2.839494  s :     2.839494
      pz      :     1.043388  p :     3.119973
      px      :     1.032300
      py      :     1.044285
      dz2     :     0.018541  d :     0.088150
      dxz     :     0.021245
      dyz     :     0.010722
      dx2y2   :     0.018149
      dxy     :     0.019494
 12 C s       :     2.833821  s :     2.833821
      pz      :     0.935530  p :     3.009608
      px      :     1.019373
      py      :     1.054705
      dz2     :     0.022705  d :     0.121746
      dxz     :     0.029116
      dyz     :     0.031281
      dx2y2   :     0.015197
      dxy     :     0.023447
 13 H s       :     0.906488  s :     0.906488
      pz      :     0.020186  p :     0.064321
      px      :     0.024186
      py      :     0.019948
 14 H s       :     0.934035  s :     0.934035
      pz      :     0.017428  p :     0.064005
      px      :     0.013610
      py      :     0.032968
 15 H s       :     0.907264  s :     0.907264
      pz      :     0.033378  p :     0.065084
      px      :     0.018983
      py      :     0.012722
 16 H s       :     0.913266  s :     0.913266
      pz      :     0.015004  p :     0.065161
      px      :     0.014315
      py      :     0.035842
 17 H s       :     0.909342  s :     0.909342
      pz      :     0.013610  p :     0.064991
      px      :     0.030099
      py      :     0.021282
 18 H s       :     0.914384  s :     0.914384
      pz      :     0.016199  p :     0.064881
      px      :     0.015476
      py      :     0.033206
 19 H s       :     0.908608  s :     0.908608
      pz      :     0.024235  p :     0.065155
      px      :     0.022386
      py      :     0.018534
 20 H s       :     0.914844  s :     0.914844
      pz      :     0.017006  p :     0.065116
      px      :     0.014319
      py      :     0.033791
 21 H s       :     0.908918  s :     0.908918
      pz      :     0.032001  p :     0.063680
      px      :     0.019588
      py      :     0.012091
 22 H s       :     0.934836  s :     0.934836
      pz      :     0.012774  p :     0.065188
      px      :     0.014394
      py      :     0.038019
 23 N s       :     3.078363  s :     3.078363
      pz      :     1.541850  p :     3.941669
      px      :     1.160574
      py      :     1.239245
      dz2     :     0.004190  d :     0.044577
      dxz     :     0.007154
      dyz     :     0.008258
      dx2y2   :     0.014496
      dxy     :     0.010478
 24 H s       :     0.811566  s :     0.811566
      pz      :     0.036603  p :     0.129957
      px      :     0.068533
      py      :     0.024821
 25 H s       :     0.808888  s :     0.808888
      pz      :     0.053973  p :     0.124311
      px      :     0.031810
      py      :     0.038528
 26 N s       :     3.081800  s :     3.081800
      pz      :     1.600138  p :     3.945261
      px      :     1.144948
      py      :     1.200176
      dz2     :     0.003868  d :     0.044398
      dxz     :     0.004249
      dyz     :     0.010810
      dx2y2   :     0.014322
      dxy     :     0.011149
 27 H s       :     0.807086  s :     0.807086
      pz      :     0.053737  p :     0.123417
      px      :     0.023302
      py      :     0.046379
 28 H s       :     0.810331  s :     0.810331
      pz      :     0.038351  p :     0.121221
      px      :     0.061899
      py      :     0.020970
 29 H s       :     0.907610  s :     0.907610
      pz      :     0.015695  p :     0.067230
      px      :     0.040144
      py      :     0.011392
 30 H s       :     0.908286  s :     0.908286
      pz      :     0.015872  p :     0.066993
      px      :     0.015750
      py      :     0.035371
 31 H s       :     0.901630  s :     0.901630
      pz      :     0.033921  p :     0.065527
      px      :     0.016408
      py      :     0.015197
 32 H s       :     0.905798  s :     0.905798
      pz      :     0.023074  p :     0.065583
      px      :     0.029337
      py      :     0.013171
 33 H s       :     0.903849  s :     0.903849
      pz      :     0.016787  p :     0.064454
      px      :     0.019970
      py      :     0.027697


                      *****************************
                      * MAYER POPULATION ANALYSIS *
                      *****************************

  NA   - Mulliken gross atomic population
  ZA   - Total nuclear charge
  QA   - Mulliken gross atomic charge
  VA   - Mayer's total valence
  BVA  - Mayer's bonded valence
  FA   - Mayer's free valence

  ATOM       NA         ZA         QA         VA         BVA        FA
  0 C      5.9447     6.0000     0.0553     3.9212     3.9212    -0.0000
  1 C      6.1007     6.0000    -0.1007     3.9705     3.9705    -0.0000
  2 C      6.0813     6.0000    -0.0813     3.8330     3.8330    -0.0000
  3 C      6.0835     6.0000    -0.0835     3.8007     3.8007     0.0000
  4 C      5.9929     6.0000     0.0071     4.0183     4.0183    -0.0000
  5 C      6.0312     6.0000    -0.0312     4.2080     4.2080    -0.0000
  6 C      5.9705     6.0000     0.0295     4.0115     4.0115    -0.0000
  7 N      7.4432     7.0000    -0.4432     3.0613     3.0613     0.0000
  8 C      5.8733     6.0000     0.1267     3.9840     3.9840     0.0000
  9 C      6.0195     6.0000    -0.0195     4.0629     4.0629    -0.0000
 10 C      6.0593     6.0000    -0.0593     4.0558     4.0558    -0.0000
 11 C      6.0249     6.0000    -0.0249     4.0678     4.0678    -0.0000
 12 C      5.8761     6.0000     0.1239     3.9661     3.9661    -0.0000
 13 H      0.9576     1.0000     0.0424     0.9878     0.9878    -0.0000
 14 H      0.9955     1.0000     0.0045     0.9854     0.9854     0.0000
 15 H      0.9694     1.0000     0.0306     0.9801     0.9801    -0.0000
 16 H      0.9802     1.0000     0.0198     0.9876     0.9876     0.0000
 17 H      0.9666     1.0000     0.0334     0.9772     0.9772     0.0000
 18 H      0.9857     1.0000     0.0143     0.9847     0.9847    -0.0000
 19 H      0.9711     1.0000     0.0289     0.9803     0.9803     0.0000
 20 H      0.9848     1.0000     0.0152     0.9902     0.9902    -0.0000
 21 H      0.9642     1.0000     0.0358     0.9873     0.9873     0.0000
 22 H      1.0073     1.0000    -0.0073     0.9886     0.9886    -0.0000
 23 N      7.1100     7.0000    -0.1100     3.1492     3.1492     0.0000
 24 H      0.8866     1.0000     0.1134     1.0381     1.0381     0.0000
 25 H      0.8781     1.0000     0.1219     1.0090     1.0090    -0.0000
 26 N      7.1503     7.0000    -0.1503     3.1152     3.1152    -0.0000
 27 H      0.8711     1.0000     0.1289     1.0003     1.0003    -0.0000
 28 H      0.8895     1.0000     0.1105     1.0036     1.0036     0.0000
 29 H      1.0201     1.0000    -0.0201     0.9935     0.9935     0.0000
 30 H      1.0114     1.0000    -0.0114     0.9925     0.9925    -0.0000
 31 H      0.9551     1.0000     0.0449     0.9891     0.9891     0.0000
 32 H      0.9699     1.0000     0.0301     0.9984     0.9984    -0.0000
 33 H      0.9745     1.0000     0.0255     0.9966     0.9966    -0.0000

  Mayer bond orders larger than 0.100000
B(  0-C ,  1-C ) :   1.0558 B(  0-C , 31-H ) :   0.9507 B(  0-C , 32-H ) :   0.9612 
B(  0-C , 33-H ) :   0.9528 B(  1-C ,  2-C ) :   1.3910 B(  1-C ,  6-C ) :   1.4002 
B(  2-C ,  3-C ) :   1.3240 B(  2-C , 30-H ) :   0.9924 B(  3-C ,  4-C ) :   1.3771 
B(  3-C , 29-H ) :   1.0076 B(  4-C ,  5-C ) :   1.3414 B(  4-C , 26-N ) :   1.1457 
B(  5-C ,  6-C ) :   1.4216 B(  5-C , 23-N ) :   1.2399 B(  6-C ,  7-N ) :   1.0202 
B(  7-N ,  8-C ) :   0.9714 B(  7-N , 12-C ) :   0.9535 B(  8-C ,  9-C ) :   1.0738 
B(  8-C , 21-H ) :   0.9537 B(  8-C , 22-H ) :   0.9274 B(  9-C , 10-C ) :   1.0712 
B(  9-C , 19-H ) :   0.9504 B(  9-C , 20-H ) :   0.9426 B( 10-C , 11-C ) :   1.0729 
B( 10-C , 17-H ) :   0.9552 B( 10-C , 18-H ) :   0.9448 B( 11-C , 12-C ) :   1.0722 
B( 11-C , 15-H ) :   0.9498 B( 11-C , 16-H ) :   0.9444 B( 12-C , 13-H ) :   0.9525 
B( 12-C , 14-H ) :   0.9339 B( 23-N , 24-H ) :   0.9103 B( 23-N , 25-H ) :   0.9259 
B( 26-N , 27-H ) :   0.9384 B( 26-N , 28-H ) :   0.9478 

-------
TIMINGS
-------

Total SCF time: 0 days 0 hours 2 min 46 sec 

Total time                  ....     166.498 sec
Sum of individual times     ....     166.255 sec  ( 99.9%)

Fock matrix formation       ....     163.174 sec  ( 98.0%)
  XC integration            ....       5.481 sec  (  3.4% of F)
    Basis function eval.    ....       1.793 sec  ( 32.7% of XC)
    Density eval.           ....       1.130 sec  ( 20.6% of XC)
    XC-Functional eval.     ....       1.035 sec  ( 18.9% of XC)
    XC-Potential eval.      ....       1.375 sec  ( 25.1% of XC)
Diagonalization             ....       0.011 sec  (  0.0%)
Density matrix formation    ....       0.010 sec  (  0.0%)
Population analysis         ....       0.009 sec  (  0.0%)
Initial guess               ....       0.011 sec  (  0.0%)
Orbital Transformation      ....       0.000 sec  (  0.0%)
Orbital Orthonormalization  ....       0.008 sec  (  0.0%)
DIIS solution               ....       0.002 sec  (  0.0%)
SOSCF solution              ....       0.036 sec  (  0.0%)
Grid generation             ....       3.001 sec  (  1.8%)


-------------------------------------------------------------------------------
                          DFT DISPERSION CORRECTION                            
                                                                               
                              DFTD3 V3.1  Rev 1                                
                              USING zero damping                               
-------------------------------------------------------------------------------
The omegaB97X-D3 functional is recognized. Fit by Chai et al.
Active option DFTDOPT                   ...         3   

molecular C6(AA) [au] = 10138.364521 


            DFT-D V3
 parameters
 s6 scaling factor         :     1.0000 
 rs6 scaling factor        :     1.2810 
 s8 scaling factor         :     1.0000 
 rs8 scaling factor        :     1.0940 
 Damping factor alpha6     :    14.0000 
 Damping factor alpha8     :    16.0000 
 ad hoc parameters k1-k3   :    16.0000     1.3333    -4.0000 

 Edisp/kcal,au: -9.757752992296  -0.015549967538 
 E6   /kcal   :  -4.502591467 
 E8   /kcal   :  -5.255161526 
 % E8         :  53.856267213 

-------------------------   ----------------
Dispersion correction           -0.015549968
-------------------------   ----------------


-------------------------   --------------------
FINAL SINGLE POINT ENERGY      -632.375322016965
-------------------------   --------------------

                                *** OPTIMIZATION RUN DONE ***

                            ***************************************
                            *     ORCA property calculations      *
                            ***************************************

                                    ---------------------
                                    Active property flags
                                    ---------------------
   (+) Dipole Moment


------------------------------------------------------------------------------
                       ORCA ELECTRIC PROPERTIES CALCULATION
------------------------------------------------------------------------------

Dipole Moment Calculation                       ... on
Quadrupole Moment Calculation                   ... off
Polarizability Calculation                      ... off
GBWName                                         ... 053827465.gbw
Electron density file                           ... 053827465.scfp
The origin for moment calculation is the CENTER OF MASS  = (-0.005341,  0.002394  0.004453)

-------------
DIPOLE MOMENT
-------------
                                X             Y             Z
Electronic contribution:    -11.87326       2.23434       0.62851
Nuclear contribution   :     11.98472      -1.92134      -0.67274
                        -----------------------------------------
Total Dipole Moment    :      0.11146       0.31300      -0.04423
                        -----------------------------------------
Magnitude (a.u.)       :      0.33519
Magnitude (Debye)      :      0.85198



--------------------
Rotational spectrum 
--------------------
 
Rotational constants in cm-1:     0.035346     0.014052     0.011324 
Rotational constants in MHz :  1059.659235   421.279992   339.477480 

 Dipole components along the rotational axes: 
x,y,z [a.u.] :     0.109139     0.312393    -0.053394 
x,y,z [Debye]:     0.277409     0.794039    -0.135718 

 

Timings for individual modules:

Sum of individual times         ...     3408.335 sec (=  56.806 min)
GTO integral calculation        ...        2.718 sec (=   0.045 min)   0.1 %
SCF iterations                  ...     2222.800 sec (=  37.047 min)  65.2 %
SCF Gradient evaluation         ...     1181.386 sec (=  19.690 min)  34.7 %
Geometry relaxation             ...        1.431 sec (=   0.024 min)   0.0 %
                             ****ORCA TERMINATED NORMALLY****
TOTAL RUN TIME: 0 days 0 hours 56 minutes 50 seconds 95 msec
