
                                 *****************
                                 * O   R   C   A *
                                 *****************

           --- An Ab Initio, DFT and Semiempirical electronic structure package ---

                  #######################################################
                  #                        -***-                        #
                  #          Department of theory and spectroscopy      #
                  #               Directorship: Frank Neese             #
                  #        Max Planck Institute fuer Kohlenforschung    #
                  #                Kaiser Wilhelm Platz 1               #
                  #                 D-45470 Muelheim/Ruhr               #
                  #                      Germany                        #
                  #                                                     #
                  #                  All rights reserved                #
                  #                        -***-                        #
                  #######################################################


                         Program Version 4.2.0 -  RELEASE  -


 With contributions from (in alphabetic order):
   Daniel Aravena         : Magnetic Suceptibility
   Michael Atanasov       : Ab Initio Ligand Field Theory (pilot matlab implementation)
   Alexander A. Auer      : GIAO ZORA, VPT2
   Ute Becker             : Parallelization
   Giovanni Bistoni       : ED, misc. LED, open-shell LED, HFLED
   Martin Brehm           : Molecular dynamics
   Dmytro Bykov           : SCF Hessian
   Vijay G. Chilkuri      : MRCI spin determinant printing, contributions to CSF-ICE
   Dipayan Datta          : RHF DLPNO-CCSD density
   Achintya Kumar Dutta   : EOM-CC, STEOM-CC
   Dmitry Ganyushin       : Spin-Orbit,Spin-Spin,Magnetic field MRCI
   Miquel Garcia          : C-PCM Hessian, Gaussian charge scheme
   Yang Guo               : DLPNO-NEVPT2, CIM, IAO-localization
   Andreas Hansen         : Spin unrestricted coupled pair/coupled cluster methods
   Benjamin Helmich-Paris : CASSCF linear response (MC-RPA)
   Lee Huntington         : MR-EOM, pCC
   Robert Izsak           : Overlap fitted RIJCOSX, COSX-SCS-MP3, EOM
   Christian Kollmar      : KDIIS, OOCD, Brueckner-CCSD(T), CCSD density
   Simone Kossmann        : Meta GGA functionals, TD-DFT gradient, OOMP2, MP2 Hessian
   Martin Krupicka        : AUTO-CI
   Lucas Lang             : DCDCAS
   Dagmar Lenk            : GEPOL surface, SMD
   Dimitrios Liakos       : Extrapolation schemes; Compound Job, initial MDCI parallelization
   Dimitrios Manganas     : Further ROCIS development; embedding schemes
   Dimitrios Pantazis     : SARC Basis sets
   Taras Petrenko         : DFT Hessian,TD-DFT gradient, ASA, ECA, R-Raman, ABS, FL, XAS/XES, NRVS
   Peter Pinski           : DLPNO-MP2, DLPNO-MP2 Gradient
   Christoph Reimann      : Effective Core Potentials
   Marius Retegan         : Local ZFS, SOC
   Christoph Riplinger    : Optimizer, TS searches, QM/MM, DLPNO-CCSD(T), (RO)-DLPNO pert. Triples
   Tobias Risthaus        : Range-separated hybrids, TD-DFT gradient, RPA, STAB
   Michael Roemelt        : Original ROCIS implementation
   Masaaki Saitow         : Open-shell DLPNO-CCSD energy and density
   Barbara Sandhoefer     : DKH picture change effects
   Avijit Sen             : IP-ROCIS
   Kantharuban Sivalingam : CASSCF convergence, NEVPT2, FIC-MRCI
   Bernardo de Souza      : ESD, SOC TD-DFT
   Georgi Stoychev        : AutoAux, RI-MP2 NMR
   Willem Van den Heuvel  : Paramagnetic NMR
   Boris Wezisla          : Elementary symmetry handling
   Frank Wennmohs         : Technical directorship


 We gratefully acknowledge several colleagues who have allowed us to
 interface, adapt or use parts of their codes:
   Stefan Grimme, W. Hujo, H. Kruse,             : VdW corrections, initial TS optimization,
                  C. Bannwarth                     DFT functionals, gCP, sTDA/sTD-DF
   Ed Valeev, F. Pavosevic, A. Kumar             : LibInt (2-el integral package), F12 methods
   Garnet Chan, S. Sharma, J. Yang, R. Olivares  : DMRG
   Ulf Ekstrom                                   : XCFun DFT Library
   Mihaly Kallay                                 : mrcc  (arbitrary order and MRCC methods)
   Andreas Klamt, Michael Diedenhofen            : otool_cosmo (COSMO solvation model)
   Jiri Pittner, Ondrej Demel                    : Mk-CCSD
   Frank Weinhold                                : gennbo (NPA and NBO analysis)
   Christopher J. Cramer and Donald G. Truhlar   : smd solvation model
   Lars Goerigk                                  : TD-DFT with DH, B97 family of functionals
   V. Asgeirsson, H. Jonsson                     : NEB implementation
   FAccTs GmbH                                   : IRC, NEB, NEB-TS, Multilevel, MM, QM/MM, CI optimization
   S Lehtola, MJT Oliveira, MAL Marques          : LibXC Library


 Your calculation uses the libint2 library for the computation of 2-el integrals
 For citations please refer to: http://libint.valeyev.net

 Your ORCA version has been built with support for libXC version: 4.2.3
 For citations please refer to: https://tddft.org/programs/libxc/

 This ORCA versions uses:
   CBLAS   interface :  Fast vector & matrix operations
   LAPACKE interface :  Fast linear algebra routines
   SCALAPACK package :  Parallel linear algebra routines


Your calculation utilizes the atom-pairwise dispersion correction
with the zero-damping scheme (D30)
Cite in your paper:
S.Grimme, J.Antony, S.Ehrlich and H.Krieg, J.Chem.Phys., 132, (2010), 154104 
   

XCFun DFT library Copyright 2009-2010 Ulf Ekstrom and contributors.
See http://admol.org/xcfun for more information. This is free soft-
ware; see the source code for copying conditions. There is ABSOLUTELY
NO WARRANTY; not even for MERCHANTABILITY or FITNESS FOR A PARTICULAR
PURPOSE. For details see the documentation. Scientific users of this 
library should cite U. Ekstrom, L. Visscher, R. Bast, A. J. Thorvald-
sen and K. Ruud; J.Chem.Theor.Comp. 2010, DOI: 10.1021/ct100117s
XCFun Version 0.99 
----- Orbital basis set information -----
Your calculation utilizes the basis: def2-SVP
   F. Weigend and R. Ahlrichs, Phys. Chem. Chem. Phys. 7, 3297 (2005).

================================================================================
                                        WARNINGS
                       Please study these warnings very carefully!
================================================================================


WARNING: Geometry Optimization
  ===> : Switching off AutoStart
         For restart on a previous wavefunction, please use MOREAD

INFO   : the flag for use of LIBINT has been found!

================================================================================
                                       INPUT FILE
================================================================================
NAME = 000246470.inp
|  1> # ORCA input file
|  2> # -53.18339675
|  3> ! wB97X-D3 def2-SVP Opt
|  4> * xyz 0 1
|  5>    C       -4.09910        -3.11050        -0.04480
|  6>    C       -3.53980        -1.72290        -0.06900
|  7>    C       -2.44030        -1.41180        -0.86200
|  8>    C       -1.92000        -0.13480        -0.88920
|  9>    C       -2.51470         0.87980        -0.13260
| 10>    C       -3.64760         0.58280         0.63110
| 11>    C       -4.13190        -0.70610         0.67670
| 12>    H       -4.99250        -0.93110         1.29000
| 13>    H       -4.10730         1.37200         1.20590
| 14>    N       -2.12740         2.20940        -0.20410
| 15>    N       -0.97280         2.61270        -0.28260
| 16>    C        0.17810         1.87030        -0.07820
| 17>    C        1.26240         2.07140        -0.93870
| 18>    C        2.46510         1.44550        -0.69680
| 19>    C        2.64090         0.64680         0.43120
| 20>    C        1.57190         0.48360         1.30980
| 21>    C        0.35070         1.07670         1.05960
| 22>    H       -0.46900         0.95430         1.75320
| 23>    H        1.69620        -0.10270         2.21120
| 24>    C        3.93530        -0.07610         0.65500
| 25>    H        4.78320         0.48790         0.26620
| 26>    C        3.94520        -1.45030        -0.02010
| 27>    O        4.91790        -1.92330        -0.52800
| 28>    O        2.78130        -2.11220         0.01810
| 29>    H        2.07700        -1.58180         0.42580
| 30>    H        4.10120        -0.25170         1.72190
| 31>    H        3.28880         1.58230        -1.38160
| 32>    H        1.12780         2.69570        -1.80830
| 33>    H       -1.07670         0.09540        -1.52540
| 34>    H       -1.98060        -2.18380        -1.46230
| 35>    H       -4.49780        -3.35100         0.93810
| 36>    H       -3.33890        -3.84160        -0.30940
| 37>    H       -4.91340        -3.19400        -0.76560
| 38> *
| 39> 
| 40>                          ****END OF INPUT****
================================================================================

                       *****************************
                       * Geometry Optimization Run *
                       *****************************

Geometry optimization settings:
Update method            Update   .... BFGS
Choice of coordinates    CoordSys .... Z-matrix Internals
Initial Hessian          InHess   .... Almoef's Model

Convergence Tolerances:
Energy Change            TolE     ....  5.0000e-06 Eh
Max. Gradient            TolMAXG  ....  3.0000e-04 Eh/bohr
RMS Gradient             TolRMSG  ....  1.0000e-04 Eh/bohr
Max. Displacement        TolMAXD  ....  4.0000e-03 bohr
RMS Displacement         TolRMSD  ....  2.0000e-03 bohr
Strict Convergence                ....  False
------------------------------------------------------------------------------
                        ORCA OPTIMIZATION COORDINATE SETUP
------------------------------------------------------------------------------

The optimization will be done in new redundant internal coordinates
Making redundant internal coordinates   ...  (new redundants) done
Evaluating the initial hessian          ...  (Almloef) done
Evaluating the coordinates              ...  done
Calculating the B-matrix                .... done
Calculating the G-matrix                .... done
Diagonalizing the G-matrix              .... done
Small eigenvalue found = 1.398e-03
Small eigenvalue found = 8.453e-03
Small eigenvalue found = 1.297e-02
The first mode is                       ....   69
The number of degrees of freedom        ....   93

    -----------------------------------------------------------------
                    Redundant Internal Coordinates


    -----------------------------------------------------------------
         Definition                    Initial Value    Approx d2E/dq
    -----------------------------------------------------------------
      1. B(C   1,C   0)                  1.4963         0.422849   
      2. B(C   2,C   1)                  1.3909         0.622792   
      3. B(C   3,C   2)                  1.3792         0.650094   
      4. B(C   4,C   3)                  1.3984         0.605809   
      5. B(C   5,C   4)                  1.3982         0.606299   
      6. B(C   6,C   5)                  1.3776         0.653822   
      7. B(C   6,C   1)                  1.3930         0.617880   
      8. B(H   7,C   6)                  1.0805         0.372944   
      9. B(H   8,C   5)                  1.0791         0.374749   
     10. B(N   9,C   4)                  1.3867         0.566413   
     11. B(N  10,N   9)                  1.2255         0.917107   
     12. B(C  11,N  10)                  1.3847         0.570513   
     13. B(C  12,C  11)                  1.3988         0.604948   
     14. B(C  13,C  12)                  1.3772         0.654813   
     15. B(C  14,C  13)                  1.3933         0.617328   
     16. B(C  15,C  14)                  1.3933         0.617228   
     17. B(C  16,C  15)                  1.3805         0.647058   
     18. B(C  16,C  11)                  1.3979         0.606880   
     19. B(H  17,C  16)                  1.0807         0.372578   
     20. B(H  18,C  15)                  1.0825         0.370214   
     21. B(C  19,C  14)                  1.4994         0.418051   
     22. B(H  20,C  19)                  1.0900         0.360042   
     23. B(C  21,C  19)                  1.5311         0.372061   
     24. B(O  22,C  21)                  1.1949         1.145806   
     25. B(O  23,C  21)                  1.3395         0.673691   
     26. B(H  24,O  23)                  0.9714         0.498664   
     27. B(H  25,C  19)                  1.0939         0.354968   
     28. B(H  26,C  13)                  1.0799         0.373736   
     29. B(H  27,C  12)                  1.0789         0.375058   
     30. B(H  28,C   3)                  1.0812         0.371992   
     31. B(H  28,H  24)                  4.0701         0.000001   
     32. B(H  29,C   2)                  1.0806         0.372770   
     33. B(H  30,C   0)                  1.0876         0.363276   
     34. B(H  31,C   0)                  1.0874         0.363565   
     35. B(H  32,C   0)                  1.0907         0.359186   
     36. A(C   1,C   0,H  32)          109.8391         0.330872   
     37. A(H  31,C   0,H  32)          108.0387         0.291161   
     38. A(C   1,C   0,H  31)          110.9929         0.331536   
     39. A(H  30,C   0,H  32)          107.8559         0.291125   
     40. A(C   1,C   0,H  30)          110.8983         0.331493   
     41. A(H  30,C   0,H  31)          109.1180         0.291680   
     42. A(C   0,C   1,C   2)          120.8063         0.405756   
     43. A(C   2,C   1,C   6)          118.5511         0.434149   
     44. A(C   0,C   1,C   6)          120.6218         0.405189   
     45. A(C   1,C   2,H  29)          119.5532         0.355253   
     46. A(C   3,C   2,H  29)          119.3435         0.357851   
     47. A(C   1,C   2,C   3)          121.1019         0.438143   
     48. A(C   4,C   3,H  28)          119.7096         0.353467   
     49. A(C   2,C   3,C   4)          120.0449         0.435965   
     50. A(C   2,C   3,H  28)          120.1988         0.357724   
     51. A(C   5,C   4,N   9)          117.2670         0.422604   
     52. A(C   3,C   4,N   9)          123.2979         0.422543   
     53. A(C   3,C   4,C   5)          119.0773         0.430531   
     54. A(C   4,C   5,C   6)          120.1099         0.436478   
     55. A(C   6,C   5,H   8)          121.1198         0.358522   
     56. A(C   4,C   5,H   8)          118.7345         0.353958   
     57. A(C   5,C   6,H   7)          119.5793         0.358228   
     58. A(C   1,C   6,H   7)          119.3674         0.354804   
     59. A(C   1,C   6,C   5)          121.0484         0.437969   
     60. A(C   4,N   9,N  10)          125.5889         0.449299   
     61. A(N   9,N  10,C  11)          126.6656         0.449888   
     62. A(C  12,C  11,C  16)          119.1182         0.430495   
     63. A(N  10,C  11,C  16)          121.8112         0.423222   
     64. A(N  10,C  11,C  12)          118.4496         0.422981   
     65. A(C  11,C  12,H  27)          118.8362         0.353874   
     66. A(C  13,C  12,H  27)          120.8959         0.358665   
     67. A(C  11,C  12,C  13)          120.2352         0.436421   
     68. A(C  14,C  13,H  26)          119.3262         0.354878   
     69. A(C  12,C  13,H  26)          119.8118         0.358450   
     70. A(C  12,C  13,C  14)          120.8580         0.438018   
     71. A(C  15,C  14,C  19)          120.7805         0.404298   
     72. A(C  13,C  14,C  19)          120.4081         0.404309   
     73. A(C  13,C  14,C  15)          118.7415         0.433379   
     74. A(C  16,C  15,H  18)          119.0266         0.357149   
     75. A(C  14,C  15,H  18)          120.0295         0.354299   
     76. A(C  14,C  15,C  16)          120.9375         0.437065   
     77. A(C  15,C  16,H  17)          120.3967         0.357535   
     78. A(C  11,C  16,H  17)          119.5390         0.353667   
     79. A(C  11,C  16,C  15)          120.0428         0.435736   
     80. A(C  14,C  19,H  20)          111.6427         0.330378   
     81. A(C  21,C  19,H  25)          106.5578         0.323340   
     82. A(H  20,C  19,H  25)          108.2380         0.290177   
     83. A(C  14,C  19,H  25)          110.7258         0.329604   
     84. A(H  20,C  19,C  21)          107.5830         0.324094   
     85. A(C  14,C  19,C  21)          111.8695         0.370167   
     86. A(O  22,C  21,O  23)          121.5901         0.486427   
     87. A(C  19,C  21,O  23)          115.1704         0.399657   
     88. A(C  19,C  21,O  22)          123.2268         0.439337   
     89. A(C  21,O  23,H  24)          111.8488         0.372752   
     90. D(C   6,C   1,C   0,H  31)   -156.3020         0.013216   
     91. D(C   6,C   1,C   0,H  32)     84.2886         0.013216   
     92. D(C   2,C   1,C   0,H  30)    146.8518         0.013216   
     93. D(C   2,C   1,C   0,H  31)     25.3842         0.013216   
     94. D(C   6,C   1,C   0,H  30)    -34.8343         0.013216   
     95. D(C   2,C   1,C   0,H  32)    -94.0252         0.013216   
     96. D(C   3,C   2,C   1,C   0)    179.9847         0.026854   
     97. D(H  29,C   2,C   1,C   6)   -178.7856         0.026854   
     98. D(H  29,C   2,C   1,C   0)     -0.4376         0.026854   
     99. D(C   3,C   2,C   1,C   6)      1.6366         0.026854   
    100. D(C   4,C   3,C   2,H  29)    179.1063         0.029426   
    101. D(H  28,C   3,C   2,C   1)   -178.8225         0.029426   
    102. D(C   4,C   3,C   2,C   1)     -1.3150         0.029426   
    103. D(H  28,C   3,C   2,H  29)      1.5988         0.029426   
    104. D(C   5,C   4,C   3,C   2)     -0.8595         0.025327   
    105. D(N   9,C   4,C   3,H  28)      3.7219         0.025327   
    106. D(N   9,C   4,C   3,C   2)   -173.7979         0.025327   
    107. D(C   5,C   4,C   3,H  28)    176.6602         0.025327   
    108. D(H   8,C   5,C   4,N   9)     -6.0958         0.025370   
    109. D(H   8,C   5,C   4,C   3)   -179.4576         0.025370   
    110. D(C   6,C   5,C   4,N   9)    176.0576         0.025370   
    111. D(C   6,C   5,C   4,C   3)      2.6958         0.025370   
    112. D(H   7,C   6,C   5,H   8)      0.6153         0.029789   
    113. D(C   1,C   6,C   5,H   8)    179.8062         0.029789   
    114. D(C   1,C   6,C   5,C   4)     -2.3995         0.029789   
    115. D(H   7,C   6,C   1,C   2)    179.4238         0.026407   
    116. D(H   7,C   6,C   5,C   4)    178.4096         0.029789   
    117. D(H   7,C   6,C   1,C   0)      1.0726         0.026407   
    118. D(C   5,C   6,C   1,C   2)      0.2312         0.026407   
    119. D(C   5,C   6,C   1,C   0)   -178.1200         0.026407   
    120. D(N  10,N   9,C   4,C   3)    -40.6046         0.023272   
    121. D(N  10,N   9,C   4,C   5)    146.3380         0.023272   
    122. D(C  11,N  10,N   9,C   4)    -12.4170         0.070522   
    123. D(C  16,C  11,N  10,N   9)    -50.0827         0.023628   
    124. D(C  12,C  11,N  10,N   9)    139.0351         0.023628   
    125. D(H  27,C  12,C  11,C  16)   -179.1718         0.025251   
    126. D(H  27,C  12,C  11,N  10)     -8.0388         0.025251   
    127. D(C  13,C  12,C  11,C  16)      2.8896         0.025251   
    128. D(C  13,C  12,C  11,N  10)    174.0226         0.025251   
    129. D(H  26,C  13,C  12,H  27)      0.2909         0.029886   
    130. D(H  26,C  13,C  12,C  11)    178.1865         0.029886   
    131. D(C  14,C  13,C  12,H  27)    179.5593         0.029886   
    132. D(C  14,C  13,C  12,C  11)     -2.5452         0.029886   
    133. D(C  19,C  14,C  13,H  26)     -3.3069         0.026357   
    134. D(C  19,C  14,C  13,C  12)    177.4212         0.026357   
    135. D(C  15,C  14,C  13,H  26)    179.7090         0.026357   
    136. D(C  15,C  14,C  13,C  12)      0.4371         0.026357   
    137. D(H  18,C  15,C  14,C  19)      5.2656         0.026348   
    138. D(H  18,C  15,C  14,C  13)   -177.7620         0.026348   
    139. D(C  16,C  15,C  14,C  19)   -175.6599         0.026348   
    140. D(C  16,C  15,C  14,C  13)      1.3126         0.026348   
    141. D(H  17,C  16,C  15,C  14)   -179.2454         0.029133   
    142. D(C  11,C  16,C  15,H  18)    178.1452         0.029133   
    143. D(C  11,C  16,C  15,C  14)     -0.9385         0.029133   
    144. D(H  17,C  16,C  11,C  12)    177.1622         0.025422   
    145. D(H  17,C  16,C  11,N  10)      6.3391         0.025422   
    146. D(C  15,C  16,C  11,C  12)     -1.1593         0.025422   
    147. D(H  17,C  16,C  15,H  18)     -0.1617         0.029133   
    148. D(C  15,C  16,C  11,N  10)   -171.9823         0.025422   
    149. D(C  21,C  19,C  14,C  15)     89.0836         0.012927   
    150. D(C  21,C  19,C  14,C  13)    -87.8384         0.012927   
    151. D(H  20,C  19,C  14,C  15)   -150.2882         0.012927   
    152. D(H  20,C  19,C  14,C  13)     32.7898         0.012927   
    153. D(H  25,C  19,C  14,C  15)    -29.6151         0.012927   
    154. D(H  25,C  19,C  14,C  13)    153.4629         0.012927   
    155. D(O  23,C  21,C  19,H  25)     83.6091         0.010358   
    156. D(O  23,C  21,C  19,H  20)   -160.4960         0.010358   
    157. D(O  23,C  21,C  19,C  14)    -37.5336         0.010358   
    158. D(O  22,C  21,C  19,H  25)    -95.1089         0.010358   
    159. D(O  22,C  21,C  19,H  20)     20.7860         0.010358   
    160. D(O  22,C  21,C  19,C  14)    143.7485         0.010358   
    161. D(H  24,O  23,C  21,O  22)   -177.3706         0.033748   
    162. D(H  24,O  23,C  21,C  19)      3.8884         0.033748   
    -----------------------------------------------------------------

Number of atoms                         .... 33
Number of degrees of freedom            .... 162

         *************************************************************
         *                GEOMETRY OPTIMIZATION CYCLE   1            *
         *************************************************************
---------------------------------
CARTESIAN COORDINATES (ANGSTROEM)
---------------------------------
  C     -4.099100   -3.110500   -0.044800
  C     -3.539800   -1.722900   -0.069000
  C     -2.440300   -1.411800   -0.862000
  C     -1.920000   -0.134800   -0.889200
  C     -2.514700    0.879800   -0.132600
  C     -3.647600    0.582800    0.631100
  C     -4.131900   -0.706100    0.676700
  H     -4.992500   -0.931100    1.290000
  H     -4.107300    1.372000    1.205900
  N     -2.127400    2.209400   -0.204100
  N     -0.972800    2.612700   -0.282600
  C      0.178100    1.870300   -0.078200
  C      1.262400    2.071400   -0.938700
  C      2.465100    1.445500   -0.696800
  C      2.640900    0.646800    0.431200
  C      1.571900    0.483600    1.309800
  C      0.350700    1.076700    1.059600
  H     -0.469000    0.954300    1.753200
  H      1.696200   -0.102700    2.211200
  C      3.935300   -0.076100    0.655000
  H      4.783200    0.487900    0.266200
  C      3.945200   -1.450300   -0.020100
  O      4.917900   -1.923300   -0.528000
  O      2.781300   -2.112200    0.018100
  H      2.077000   -1.581800    0.425800
  H      4.101200   -0.251700    1.721900
  H      3.288800    1.582300   -1.381600
  H      1.127800    2.695700   -1.808300
  H     -1.076700    0.095400   -1.525400
  H     -1.980600   -2.183800   -1.462300
  H     -4.497800   -3.351000    0.938100
  H     -3.338900   -3.841600   -0.309400
  H     -4.913400   -3.194000   -0.765600

----------------------------
CARTESIAN COORDINATES (A.U.)
----------------------------
  NO LB      ZA    FRAG     MASS         X           Y           Z
   0 C     6.0000    0    12.011   -7.746176   -5.877993   -0.084660
   1 C     6.0000    0    12.011   -6.689253   -3.255809   -0.130391
   2 C     6.0000    0    12.011   -4.611499   -2.667915   -1.628944
   3 C     6.0000    0    12.011   -3.628274   -0.254735   -1.680344
   4 C     6.0000    0    12.011   -4.752094    1.662581   -0.250578
   5 C     6.0000    0    12.011   -6.892965    1.101332    1.192606
   6 C     6.0000    0    12.011   -7.808159   -1.334336    1.278778
   7 H     1.0000    0     1.008   -9.434458   -1.759524    2.437747
   8 H     1.0000    0     1.008   -7.761672    2.592704    2.278821
   9 N     7.0000    0    14.007   -4.020203    4.175161   -0.385693
  10 N     7.0000    0    14.007   -1.838326    4.937287   -0.534037
  11 C     6.0000    0    12.011    0.336560    3.534355   -0.147777
  12 C     6.0000    0    12.011    2.385590    3.914379   -1.773886
  13 C     6.0000    0    12.011    4.658364    2.731599   -1.316761
  14 C     6.0000    0    12.011    4.990578    1.222275    0.814850
  15 C     6.0000    0    12.011    2.970461    0.913872    2.475163
  16 C     6.0000    0    12.011    0.662727    2.034668    2.002354
  17 H     1.0000    0     1.008   -0.886282    1.803366    3.313068
  18 H     1.0000    0     1.008    3.205353   -0.194075    4.178562
  19 C     6.0000    0    12.011    7.436639   -0.143808    1.237771
  20 H     1.0000    0     1.008    9.038938    0.921997    0.503045
  21 C     6.0000    0    12.011    7.455348   -2.740670   -0.037983
  22 O     8.0000    0    15.999    9.293484   -3.634510   -0.997775
  23 O     8.0000    0    15.999    5.255895   -3.991480    0.034204
  24 H     1.0000    0     1.008    3.924961   -2.989169    0.804645
  25 H     1.0000    0     1.008    7.750145   -0.475644    3.253919
  26 H     1.0000    0     1.008    6.214931    2.990114   -2.610846
  27 H     1.0000    0     1.008    2.131233    5.094135   -3.417192
  28 H     1.0000    0     1.008   -2.034668    0.180280   -2.882588
  29 H     1.0000    0     1.008   -3.742792   -4.126784   -2.763347
  30 H     1.0000    0     1.008   -8.499610   -6.332472    1.772752
  31 H     1.0000    0     1.008   -6.309607   -7.259572   -0.584681
  32 H     1.0000    0     1.008   -9.284980   -6.035785   -1.446774

--------------------------------
INTERNAL COORDINATES (ANGSTROEM)
--------------------------------
 C      0   0   0     0.000000000000     0.00000000     0.00000000
 C      1   0   0     1.496274002314     0.00000000     0.00000000
 C      2   1   0     1.390874710389   120.80627309     0.00000000
 C      3   2   1     1.379195754779   121.10189087   179.98467328
 C      4   3   2     1.398400804491   120.04488021   358.68497357
 C      5   4   3     1.398180639259   119.07732049   359.14048477
 C      6   5   4     1.377638943991   120.10988452     2.69584428
 H      7   6   5     1.080460202877   119.57932655   178.40958434
 H      6   5   4     1.079145852052   118.73445161   180.54238708
 N      5   4   3     1.386704618872   123.29787900   186.20214888
 N     10   5   4     1.225526131912   125.58890292   319.39538642
 C     11  10   5     1.384741105767   126.66557006   347.58296686
 C     12  11  10     1.398788028974   118.44955492   139.03511372
 C     13  12  11     1.377226818647   120.23518269   174.02256634
 C     14  13  12     1.393273601989   120.85802905   357.45484935
 C     15  14  13     1.393317336431   118.74152644     0.43713671
 C     16  15  14     1.380469880150   120.93754076     1.31255750
 H     17  16  15     1.080726982174   120.39671033   180.75460691
 H     16  15  14     1.082460225597   120.02949128   182.23803006
 C     15  14  13     1.499380608785   120.40806510   177.42117136
 H     20  15  14     1.090043967003   111.64273794    32.78982268
 C     20  15  14     1.531105371945   111.86946463   272.16160915
 O     22  20  15     1.194921210792   123.22677009   143.74849333
 O     22  20  15     1.339490223928   115.17037905   322.46643562
 H     24  22  20     0.971381459572   111.84884183     3.88843007
 H     20  15  14     1.093907573792   110.72579542   153.46292056
 H     14  13  12     1.079882850128   119.81182746   178.18645742
 H     13  12  11     1.078921595854   118.83624571   351.96116788
 H      4   3   2     1.081155571599   120.19881404   181.17747310
 H      3   2   1     1.080586960869   119.55324929   359.56244996
 H      1   2   3     1.087609465755   110.89830817   146.85184378
 H      1   2   3     1.087393401672   110.99293659    25.38418804
 H      1   2   3     1.090692156385   109.83909684   265.97478497

---------------------------
INTERNAL COORDINATES (A.U.)
---------------------------
 C      0   0   0     0.000000000000     0.00000000     0.00000000
 C      1   0   0     2.827548085679     0.00000000     0.00000000
 C      2   1   0     2.628372289232   120.80627309     0.00000000
 C      3   2   1     2.606302261599   121.10189087   179.98467328
 C      4   3   2     2.642594545942   120.04488021   358.68497357
 C      5   4   3     2.642178493951   119.07732049   359.14048477
 C      6   5   4     2.603360315567   120.10988452     2.69584428
 H      7   6   5     2.041773882038   119.57932655   178.40958434
 H      6   5   4     2.039290118934   118.73445161   180.54238708
 N      5   4   3     2.620491958311   123.29787900   186.20214888
 N     10   5   4     2.315908759278   125.58890292   319.39538642
 C     11  10   5     2.616781456282   126.66557006   347.58296686
 C     12  11  10     2.643326294168   118.44955492   139.03511372
 C     13  12  11     2.602581511534   120.23518269   174.02256634
 C     14  13  12     2.632905537382   120.85802905   357.45484935
 C     15  14  13     2.632988183500   118.74152644     0.43713671
 C     16  15  14     2.608710009610   120.93754076     1.31255750
 H     17  16  15     2.042278021849   120.39671033   180.75460691
 H     16  15  14     2.045553377241   120.02949128   182.23803006
 C     15  14  13     2.833418721115   120.40806510   177.42117136
 H     20  15  14     2.059884571569   111.64273794    32.78982268
 C     20  15  14     2.893369835152   111.86946463   272.16160915
 O     22  20  15     2.258073840010   123.22677009   143.74849333
 O     22  20  15     2.531269682290   115.17037905   322.46643562
 H     24  22  20     1.835644930160   111.84884183     3.88843007
 H     20  15  14     2.067185730290   110.72579542   153.46292056
 H     14  13  12     2.040682843460   119.81182746   178.18645742
 H     13  12  11     2.038866336137   118.83624571   351.96116788
 H      4   3   2     2.043087938486   120.19881404   181.17747310
 H      3   2   1     2.042013419929   119.55324929   359.56244996
 H      1   2   3     2.055284030937   110.89830817   146.85184378
 H      1   2   3     2.054875728993   110.99293659    25.38418804
 H      1   2   3     2.061109471984   109.83909684   265.97478497

---------------------
BASIS SET INFORMATION
---------------------
There are 4 groups of distinct atoms

 Group   1 Type C   : 7s4p1d contracted to 3s2p1d pattern {511/31/1}
 Group   2 Type H   : 4s1p contracted to 2s1p pattern {31/1}
 Group   3 Type N   : 7s4p1d contracted to 3s2p1d pattern {511/31/1}
 Group   4 Type O   : 7s4p1d contracted to 3s2p1d pattern {511/31/1}

Atom   0C    basis set group =>   1
Atom   1C    basis set group =>   1
Atom   2C    basis set group =>   1
Atom   3C    basis set group =>   1
Atom   4C    basis set group =>   1
Atom   5C    basis set group =>   1
Atom   6C    basis set group =>   1
Atom   7H    basis set group =>   2
Atom   8H    basis set group =>   2
Atom   9N    basis set group =>   3
Atom  10N    basis set group =>   3
Atom  11C    basis set group =>   1
Atom  12C    basis set group =>   1
Atom  13C    basis set group =>   1
Atom  14C    basis set group =>   1
Atom  15C    basis set group =>   1
Atom  16C    basis set group =>   1
Atom  17H    basis set group =>   2
Atom  18H    basis set group =>   2
Atom  19C    basis set group =>   1
Atom  20H    basis set group =>   2
Atom  21C    basis set group =>   1
Atom  22O    basis set group =>   4
Atom  23O    basis set group =>   4
Atom  24H    basis set group =>   2
Atom  25H    basis set group =>   2
Atom  26H    basis set group =>   2
Atom  27H    basis set group =>   2
Atom  28H    basis set group =>   2
Atom  29H    basis set group =>   2
Atom  30H    basis set group =>   2
Atom  31H    basis set group =>   2
Atom  32H    basis set group =>   2
------------------------------------------------------------------------------
                           ORCA GTO INTEGRAL CALCULATION
------------------------------------------------------------------------------

                         BASIS SET STATISTICS AND STARTUP INFO

 # of primitive gaussian shells          ...  298
 # of primitive gaussian functions       ...  554
 # of contracted shells                  ...  156
 # of contracted basis functions         ...  336
 Highest angular momentum                ...    2
 Maximum contraction depth               ...    5
 Integral package used                   ... LIBINT
 Integral threshhold            Thresh   ...  2.500e-11
 Primitive cut-off              TCut     ...  2.500e-12


------------------------------ INTEGRAL EVALUATION ----------------------------


 * One electron integrals 
 Pre-screening matrix                    ... done
 Shell pair data                         ... done (   0.003 sec)

-------------------------------------------------------------------------------
                                 ORCA SCF
-------------------------------------------------------------------------------

------------
SCF SETTINGS
------------
Hamiltonian:
 Density Functional     Method          .... DFT(GTOs)
 Exchange Functional    Exchange        .... WB97X-D3
 Correlation Functional Correlation     .... WB97X-D3
 Gradients option       PostSCFGGA      .... off
 Hybrid DFT is turned on
   Fraction HF Exchange ScalHFX         ....  0.195728
   Scaling of DF-GGA-X  ScalDFX         ....  0.000000
   Scaling of DF-GGA-C  ScalDFC         ....  1.000000
   Scaling of DF-LDA-C  ScalLDAC        ....  1.000000
   Perturbative correction              ....  0.000000
   Density functional embedding theory  .... OFF
 Long-range corrected/Screened/Range-Separated Hybrid DFT is turned on
   Amount of maximum screened exact exchange              ....  0.804272
   Range separation parameter mu (erf(mu*r12)/r12)        ....  0.250000


General Settings:
 Integral files         IntName         .... 000246470
 Hartree-Fock type      HFTyp           .... RHF
 Total Charge           Charge          ....    0
 Multiplicity           Mult            ....    1
 Number of Electrons    NEL             ....  134
 Basis Dimension        Dim             ....  336
 Nuclear Repulsion      ENuc            ....   1316.7486279923 Eh

Convergence Acceleration:
 DIIS                   CNVDIIS         .... on
   Start iteration      DIISMaxIt       ....    12
   Startup error        DIISStart       ....  0.200000
   # of expansion vecs  DIISMaxEq       ....     5
   Bias factor          DIISBfac        ....   1.050
   Max. coefficient     DIISMaxC        ....  10.000
 Newton-Raphson         CNVNR           .... off
 SOSCF                  CNVSOSCF        .... on
   Start iteration      SOSCFMaxIt      ....   150
   Startup grad/error   SOSCFStart      ....  0.003300
 Level Shifting         CNVShift        .... on
   Level shift para.    LevelShift      ....    0.2500
   Turn off err/grad.   ShiftErr        ....    0.0010
 Zerner damping         CNVZerner       .... off
 Static damping         CNVDamp         .... on
   Fraction old density DampFac         ....    0.7000
   Max. Damping (<1)    DampMax         ....    0.9800
   Min. Damping (>=0)   DampMin         ....    0.0000
   Turn off err/grad.   DampErr         ....    0.1000
 Fernandez-Rico         CNVRico         .... off

SCF Procedure:
 Maximum # iterations   MaxIter         ....   125
 SCF integral mode      SCFMode         .... Direct
   Integral package                     .... LIBINT
 Reset frequency        DirectResetFreq ....    20
 Integral Threshold     Thresh          ....  2.500e-11 Eh
 Primitive CutOff       TCut            ....  2.500e-12 Eh

Convergence Tolerance:
 Convergence Check Mode ConvCheckMode   .... Total+1el-Energy
 Convergence forced     ConvForced      .... 0
 Energy Change          TolE            ....  1.000e-08 Eh
 1-El. energy change                    ....  1.000e-05 Eh
 Orbital Gradient       TolG            ....  1.000e-05
 Orbital Rotation angle TolX            ....  1.000e-05
 DIIS Error             TolErr          ....  5.000e-07


Diagonalization of the overlap matrix:
Smallest eigenvalue                        ... 2.096e-04
Time for diagonalization                   ...    0.013 sec
Threshold for overlap eigenvalues          ... 1.000e-08
Number of eigenvalues below threshold      ... 0
Time for construction of square roots      ...    0.007 sec
Total time needed                          ...    0.020 sec

-------------------
DFT GRID GENERATION
-------------------

General Integration Accuracy     IntAcc      ...  4.340
Radial Grid Type                 RadialGrid  ... Gauss-Chebyshev
Angular Grid (max. acc.)         AngularGrid ... Lebedev-110
Angular grid pruning method      GridPruning ... 3 (G Style)
Weight generation scheme         WeightScheme... Becke
Basis function cutoff            BFCut       ...    1.0000e-11
Integration weight cutoff        WCut        ...    1.0000e-14
Grids for H and He will be reduced by one unit

# of grid points (after initial pruning)     ...  42792 (   0.0 sec)
# of grid points (after weights+screening)   ...  38549 (   0.2 sec)
nearest neighbour list constructed           ...    0.0 sec
Grid point re-assignment to atoms done       ...    0.0 sec
Grid point division into batches done        ...    0.0 sec
Reduced shell lists constructed in    0.4 sec

Total number of grid points                  ...    38549
Total number of batches                      ...      621
Average number of points per batch           ...       62
Average number of grid points per atom       ...     1168
Average number of shells per batch           ...    79.67 (51.07%)
Average number of basis functions per batch  ...   162.80 (48.45%)
Average number of large shells per batch     ...    54.00 (67.77%)
Average number of large basis fcns per batch ...   110.86 (68.09%)
Maximum spatial batch extension              ...  19.92, 22.72, 21.87 au
Average spatial batch extension              ...   3.30,  3.55,  3.72 au

Time for grid setup =    0.646 sec

------------------------------
INITIAL GUESS: MODEL POTENTIAL
------------------------------
Loading Hartree-Fock densities                     ... done
Calculating cut-offs                               ... done
Setting up the integral package                    ... done
Initializing the effective Hamiltonian             ... done
Starting the Coulomb interaction                   ... done (   0.5 sec)
Reading the grid                                   ... done
Mapping shells                                     ... done
Starting the XC term evaluation                    ... done (   0.5 sec)
  promolecular density results
     # of electrons  =    133.996395512
     EX              =   -110.289967465
     EC              =     -4.494309725
     EX+EC           =   -114.784277190
Transforming the Hamiltonian                       ... done (   0.0 sec)
Diagonalizing the Hamiltonian                      ... done (   0.0 sec)
Back transforming the eigenvectors                 ... done (   0.0 sec)
Now organizing SCF variables                       ... done
                      ------------------
                      INITIAL GUESS DONE (   1.8 sec)
                      ------------------
--------------
SCF ITERATIONS
--------------
ITER       Energy         Delta-E        Max-DP      RMS-DP      [F,P]     Damp
               ***  Starting incremental Fock matrix formation  ***
  0   -838.6960426660   0.000000000000 0.08882587  0.00165247  0.2469313 0.7000
  1   -838.8476136811  -0.151571015163 0.06934038  0.00122225  0.1172938 0.7000
                               ***Turning on DIIS***
  2   -838.9249909736  -0.077377292439 0.10190747  0.00248451  0.0509748 0.0000
  3   -839.0571931954  -0.132202221822 0.06053402  0.00069010  0.0590058 0.0000
  4   -839.0732969265  -0.016103731049 0.01045771  0.00016505  0.0117645 0.0000
  5   -839.0740069413  -0.000710014886 0.00487945  0.00006696  0.0057724 0.0000
                      *** Initiating the SOSCF procedure ***
                           *** Shutting down DIIS ***
                      *** Re-Reading the Fockian *** 
                      *** Removing any level shift *** 
ITER      Energy       Delta-E        Grad      Rot      Max-DP    RMS-DP
  6   -839.07411746  -0.0001105168  0.001468  0.001468  0.002407  0.000046
               *** Restarting incremental Fock matrix formation ***
  7   -839.07415561  -0.0000381541  0.000451  0.001304  0.001212  0.000028
  8   -839.07415987  -0.0000042626  0.000665  0.001127  0.000785  0.000012
  9   -839.07416628  -0.0000064014  0.000133  0.000582  0.000244  0.000006
 10   -839.07416657  -0.0000002932  0.000048  0.000160  0.000134  0.000003
 11   -839.07416672  -0.0000001459  0.000032  0.000049  0.000048  0.000001
 12   -839.07416674  -0.0000000199  0.000012  0.000070  0.000036  0.000001
 13   -839.07416674  -0.0000000043  0.000006  0.000055  0.000026  0.000000
 14   -839.07416674   0.0000000011  0.000003  0.000011  0.000008  0.000000
                  ***Gradient check signals convergence***
              ***Rediagonalizing the Fockian in SOSCF/NRSCF***

               *****************************************************
               *                     SUCCESS                       *
               *           SCF CONVERGED AFTER  15 CYCLES          *
               *****************************************************

Setting up the final grid:

General Integration Accuracy     IntAcc      ...  4.670
Radial Grid Type                 RadialGrid  ... Gauss-Chebyshev
Angular Grid (max. acc.)         AngularGrid ... Lebedev-302
Angular grid pruning method      GridPruning ... 3 (G Style)
Weight generation scheme         WeightScheme... Becke
Basis function cutoff            BFCut       ...    1.0000e-11
Integration weight cutoff        WCut        ...    1.0000e-14
Grids for H and He will be reduced by one unit

# of grid points (after initial pruning)     ... 165544 (   0.1 sec)
# of grid points (after weights+screening)   ... 145979 (   0.9 sec)
nearest neighbour list constructed           ...    0.0 sec
Grid point re-assignment to atoms done       ...    0.0 sec
Grid point division into batches done        ...    0.5 sec
Reduced shell lists constructed in    1.7 sec

Total number of grid points                  ...   145979
Total number of batches                      ...     2298
Average number of points per batch           ...       63
Average number of grid points per atom       ...     4424
Average number of shells per batch           ...    72.39 (46.41%)
Average number of basis functions per batch  ...   146.98 (43.74%)
Average number of large shells per batch     ...    48.37 (66.81%)
Average number of large basis fcns per batch ...    98.41 (66.95%)
Maximum spatial batch extension              ...  21.94, 23.20, 23.22 au
Average spatial batch extension              ...   2.26,  2.39,  2.37 au

Final grid set up in    2.7 sec
Final integration                            ... done (   2.6 sec)
Change in XC energy                          ...     0.000728931
Integrated number of electrons               ...   133.999730246
Previous integrated no of electrons          ...   134.004505703

----------------
TOTAL SCF ENERGY
----------------

Total Energy       :         -839.07343781 Eh          -22832.34902 eV

Components:
Nuclear Repulsion  :         1316.74862799 Eh           35830.55176 eV
Electronic Energy  :        -2155.82206580 Eh          -58662.90077 eV
One Electron Energy:        -3751.16866685 Eh         -102074.48879 eV
Two Electron Energy:         1595.34660105 Eh           43411.58802 eV

Virial components:
Potential Energy   :        -1670.27657347 Eh          -45450.53622 eV
Kinetic Energy     :          831.20313566 Eh           22618.18721 eV
Virial Ratio       :            2.00946857


DFT components:
N(Alpha)           :       66.999865123007 electrons
N(Beta)            :       66.999865123007 electrons
N(Total)           :      133.999730246014 electrons
E(XC)              :      -81.030333805918 Eh       
DFET-embed. en.    :        0.000000000000 Eh       

---------------
SCF CONVERGENCE
---------------

  Last Energy change         ...    1.5757e-10  Tolerance :   1.0000e-08
  Last MAX-Density change    ...    3.7739e-06  Tolerance :   1.0000e-07
  Last RMS-Density change    ...    7.1194e-08  Tolerance :   5.0000e-09
  Last Orbital Gradient      ...    1.2803e-06  Tolerance :   1.0000e-05
  Last Orbital Rotation      ...    4.8190e-06  Tolerance :   1.0000e-05

             **** THE GBW FILE WAS UPDATED (000246470.gbw) ****
             **** DENSITY FILE WAS UPDATED (000246470.scfp) ****
             **** ENERGY FILE WAS UPDATED (000246470.en.tmp) ****
             **** THE GBW FILE WAS UPDATED (000246470.gbw) ****
             **** DENSITY FILE WAS UPDATED (000246470.scfp) ****
----------------
ORBITAL ENERGIES
----------------

  NO   OCC          E(Eh)            E(eV) 
   0   2.0000     -19.287448      -524.8381 
   1   2.0000     -19.222916      -523.0821 
   2   2.0000     -14.492105      -394.3502 
   3   2.0000     -14.489957      -394.2918 
   4   2.0000     -10.422508      -283.6109 
   5   2.0000     -10.343889      -281.4715 
   6   2.0000     -10.333220      -281.1812 
   7   2.0000     -10.325989      -280.9844 
   8   2.0000     -10.319738      -280.8144 
   9   2.0000     -10.318722      -280.7867 
  10   2.0000     -10.317585      -280.7558 
  11   2.0000     -10.315411      -280.6966 
  12   2.0000     -10.314886      -280.6823 
  13   2.0000     -10.314367      -280.6682 
  14   2.0000     -10.310692      -280.5682 
  15   2.0000     -10.307638      -280.4851 
  16   2.0000     -10.304557      -280.4013 
  17   2.0000     -10.303785      -280.3802 
  18   2.0000     -10.296790      -280.1899 
  19   2.0000      -1.212021       -32.9808 
  20   2.0000      -1.174681       -31.9647 
  21   2.0000      -1.125400       -30.6237 
  22   2.0000      -1.011494       -27.5242 
  23   2.0000      -0.996260       -27.1096 
  24   2.0000      -0.944418       -25.6989 
  25   2.0000      -0.913200       -24.8494 
  26   2.0000      -0.888384       -24.1742 
  27   2.0000      -0.877915       -23.8893 
  28   2.0000      -0.867217       -23.5982 
  29   2.0000      -0.829861       -22.5817 
  30   2.0000      -0.774465       -21.0743 
  31   2.0000      -0.748875       -20.3779 
  32   2.0000      -0.738808       -20.1040 
  33   2.0000      -0.732029       -19.9195 
  34   2.0000      -0.723545       -19.6886 
  35   2.0000      -0.692409       -18.8414 
  36   2.0000      -0.673305       -18.3215 
  37   2.0000      -0.633791       -17.2463 
  38   2.0000      -0.616987       -16.7891 
  39   2.0000      -0.605508       -16.4767 
  40   2.0000      -0.603143       -16.4124 
  41   2.0000      -0.585635       -15.9359 
  42   2.0000      -0.567027       -15.4296 
  43   2.0000      -0.563968       -15.3463 
  44   2.0000      -0.553188       -15.0530 
  45   2.0000      -0.550055       -14.9678 
  46   2.0000      -0.543425       -14.7873 
  47   2.0000      -0.541668       -14.7395 
  48   2.0000      -0.539803       -14.6888 
  49   2.0000      -0.529516       -14.4089 
  50   2.0000      -0.523920       -14.2566 
  51   2.0000      -0.503342       -13.6966 
  52   2.0000      -0.497634       -13.5413 
  53   2.0000      -0.483930       -13.1684 
  54   2.0000      -0.479751       -13.0547 
  55   2.0000      -0.473782       -12.8923 
  56   2.0000      -0.471270       -12.8239 
  57   2.0000      -0.467879       -12.7316 
  58   2.0000      -0.450014       -12.2455 
  59   2.0000      -0.447687       -12.1822 
  60   2.0000      -0.416116       -11.3231 
  61   2.0000      -0.382873       -10.4185 
  62   2.0000      -0.374761       -10.1978 
  63   2.0000      -0.362327        -9.8594 
  64   2.0000      -0.353127        -9.6091 
  65   2.0000      -0.348786        -9.4910 
  66   2.0000      -0.295656        -8.0452 
  67   0.0000      -0.015755        -0.4287 
  68   0.0000       0.034419         0.9366 
  69   0.0000       0.050764         1.3814 
  70   0.0000       0.059022         1.6061 
  71   0.0000       0.095591         2.6012 
  72   0.0000       0.100990         2.7481 
  73   0.0000       0.134121         3.6496 
  74   0.0000       0.144242         3.9250 
  75   0.0000       0.158734         4.3194 
  76   0.0000       0.162675         4.4266 
  77   0.0000       0.165610         4.5065 
  78   0.0000       0.173155         4.7118 
  79   0.0000       0.185082         5.0363 
  80   0.0000       0.204292         5.5591 
  81   0.0000       0.207581         5.6486 
  82   0.0000       0.211938         5.7671 
  83   0.0000       0.217193         5.9101 
  84   0.0000       0.225493         6.1360 
  85   0.0000       0.232446         6.3252 
  86   0.0000       0.238635         6.4936 
  87   0.0000       0.246583         6.7099 
  88   0.0000       0.260201         7.0804 
  89   0.0000       0.281874         7.6702 
  90   0.0000       0.296352         8.0641 
  91   0.0000       0.300890         8.1876 
  92   0.0000       0.311466         8.4754 
  93   0.0000       0.344547         9.3756 
  94   0.0000       0.353960         9.6317 
  95   0.0000       0.358126         9.7451 
  96   0.0000       0.368559        10.0290 
  97   0.0000       0.369481        10.0541 
  98   0.0000       0.373025        10.1505 
  99   0.0000       0.387233        10.5371 
 100   0.0000       0.395992        10.7755 
 101   0.0000       0.404814        11.0156 
 102   0.0000       0.411278        11.1915 
 103   0.0000       0.426302        11.6003 
 104   0.0000       0.446005        12.1364 
 105   0.0000       0.450005        12.2453 
 106   0.0000       0.468110        12.7379 
 107   0.0000       0.477731        12.9997 
 108   0.0000       0.484423        13.1818 
 109   0.0000       0.495955        13.4956 
 110   0.0000       0.505680        13.7603 
 111   0.0000       0.508306        13.8317 
 112   0.0000       0.520988        14.1768 
 113   0.0000       0.530567        14.4375 
 114   0.0000       0.531655        14.4671 
 115   0.0000       0.535393        14.5688 
 116   0.0000       0.547268        14.8919 
 117   0.0000       0.553987        15.0748 
 118   0.0000       0.560131        15.2419 
 119   0.0000       0.566750        15.4221 
 120   0.0000       0.572870        15.5886 
 121   0.0000       0.584245        15.8981 
 122   0.0000       0.587339        15.9823 
 123   0.0000       0.593444        16.1484 
 124   0.0000       0.612574        16.6690 
 125   0.0000       0.621923        16.9234 
 126   0.0000       0.628826        17.1112 
 127   0.0000       0.635110        17.2822 
 128   0.0000       0.643977        17.5235 
 129   0.0000       0.651393        17.7253 
 130   0.0000       0.664046        18.0696 
 131   0.0000       0.681996        18.5580 
 132   0.0000       0.687341        18.7035 
 133   0.0000       0.702363        19.1123 
 134   0.0000       0.716841        19.5062 
 135   0.0000       0.721127        19.6229 
 136   0.0000       0.723711        19.6932 
 137   0.0000       0.726974        19.7820 
 138   0.0000       0.731500        19.9051 
 139   0.0000       0.736468        20.0403 
 140   0.0000       0.742222        20.1969 
 141   0.0000       0.748835        20.3768 
 142   0.0000       0.752754        20.4835 
 143   0.0000       0.753481        20.5033 
 144   0.0000       0.764411        20.8007 
 145   0.0000       0.768483        20.9115 
 146   0.0000       0.772116        21.0104 
 147   0.0000       0.773759        21.0551 
 148   0.0000       0.776702        21.1351 
 149   0.0000       0.779949        21.2235 
 150   0.0000       0.784488        21.3470 
 151   0.0000       0.788633        21.4598 
 152   0.0000       0.796238        21.6667 
 153   0.0000       0.805195        21.9105 
 154   0.0000       0.808636        22.0041 
 155   0.0000       0.821172        22.3452 
 156   0.0000       0.826598        22.4929 
 157   0.0000       0.844132        22.9700 
 158   0.0000       0.850346        23.1391 
 159   0.0000       0.857241        23.3267 
 160   0.0000       0.868205        23.6251 
 161   0.0000       0.868549        23.6344 
 162   0.0000       0.889130        24.1945 
 163   0.0000       0.905585        24.6422 
 164   0.0000       0.909268        24.7424 
 165   0.0000       0.916899        24.9501 
 166   0.0000       0.925334        25.1796 
 167   0.0000       0.935427        25.4543 
 168   0.0000       0.953700        25.9515 
 169   0.0000       0.970351        26.4046 
 170   0.0000       0.987252        26.8645 
 171   0.0000       0.998580        27.1728 
 172   0.0000       1.009917        27.4812 
 173   0.0000       1.021733        27.8028 
 174   0.0000       1.049888        28.5689 
 175   0.0000       1.053150        28.6577 
 176   0.0000       1.071560        29.1586 
 177   0.0000       1.078015        29.3343 
 178   0.0000       1.096015        29.8241 
 179   0.0000       1.113434        30.2981 
 180   0.0000       1.130825        30.7713 
 181   0.0000       1.156545        31.4712 
 182   0.0000       1.156886        31.4805 
 183   0.0000       1.187619        32.3168 
 184   0.0000       1.206755        32.8375 
 185   0.0000       1.211284        32.9607 
 186   0.0000       1.226664        33.3792 
 187   0.0000       1.238374        33.6979 
 188   0.0000       1.243127        33.8272 
 189   0.0000       1.266331        34.4586 
 190   0.0000       1.307492        35.5787 
 191   0.0000       1.316354        35.8198 
 192   0.0000       1.333966        36.2991 
 193   0.0000       1.338442        36.4208 
 194   0.0000       1.347008        36.6540 
 195   0.0000       1.361688        37.0534 
 196   0.0000       1.363354        37.0988 
 197   0.0000       1.373657        37.3791 
 198   0.0000       1.380329        37.5607 
 199   0.0000       1.388824        37.7918 
 200   0.0000       1.398459        38.0540 
 201   0.0000       1.411152        38.3994 
 202   0.0000       1.422811        38.7167 
 203   0.0000       1.435271        39.0557 
 204   0.0000       1.470269        40.0080 
 205   0.0000       1.498802        40.7845 
 206   0.0000       1.542384        41.9704 
 207   0.0000       1.557001        42.3682 
 208   0.0000       1.561551        42.4920 
 209   0.0000       1.573909        42.8282 
 210   0.0000       1.592687        43.3392 
 211   0.0000       1.606772        43.7225 
 212   0.0000       1.618271        44.0354 
 213   0.0000       1.632399        44.4198 
 214   0.0000       1.637801        44.5668 
 215   0.0000       1.660002        45.1709 
 216   0.0000       1.710900        46.5560 
 217   0.0000       1.727183        46.9990 
 218   0.0000       1.739452        47.3329 
 219   0.0000       1.761506        47.9330 
 220   0.0000       1.775494        48.3136 
 221   0.0000       1.788867        48.6775 
 222   0.0000       1.795169        48.8490 
 223   0.0000       1.800850        49.0036 
 224   0.0000       1.806490        49.1571 
 225   0.0000       1.818306        49.4786 
 226   0.0000       1.820410        49.5359 
 227   0.0000       1.834234        49.9120 
 228   0.0000       1.838332        50.0236 
 229   0.0000       1.845450        50.2172 
 230   0.0000       1.848395        50.2974 
 231   0.0000       1.853355        50.4324 
 232   0.0000       1.855304        50.4854 
 233   0.0000       1.864583        50.7379 
 234   0.0000       1.878485        51.1162 
 235   0.0000       1.885622        51.3104 
 236   0.0000       1.894345        51.5477 
 237   0.0000       1.895911        51.5904 
 238   0.0000       1.904707        51.8297 
 239   0.0000       1.917192        52.1694 
 240   0.0000       1.924265        52.3619 
 241   0.0000       1.935965        52.6803 
 242   0.0000       1.951962        53.1156 
 243   0.0000       1.961337        53.3707 
 244   0.0000       1.970384        53.6169 
 245   0.0000       1.983470        53.9730 
 246   0.0000       1.999056        54.3971 
 247   0.0000       2.009456        54.6801 
 248   0.0000       2.032187        55.2986 
 249   0.0000       2.055008        55.9196 
 250   0.0000       2.062376        56.1201 
 251   0.0000       2.065521        56.2057 
 252   0.0000       2.076685        56.5095 
 253   0.0000       2.108557        57.3767 
 254   0.0000       2.120430        57.6998 
 255   0.0000       2.124096        57.7996 
 256   0.0000       2.132680        58.0332 
 257   0.0000       2.143337        58.3232 
 258   0.0000       2.160219        58.7825 
 259   0.0000       2.174337        59.1667 
 260   0.0000       2.181462        59.3606 
 261   0.0000       2.187950        59.5372 
 262   0.0000       2.218858        60.3782 
 263   0.0000       2.223565        60.5063 
 264   0.0000       2.234712        60.8096 
 265   0.0000       2.251132        61.2564 
 266   0.0000       2.261569        61.5404 
 267   0.0000       2.279655        62.0326 
 268   0.0000       2.282882        62.1204 
 269   0.0000       2.295500        62.4637 
 270   0.0000       2.322063        63.1866 
 271   0.0000       2.324408        63.2504 
 272   0.0000       2.339636        63.6647 
 273   0.0000       2.345754        63.8312 
 274   0.0000       2.367539        64.4240 
 275   0.0000       2.384481        64.8850 
 276   0.0000       2.397633        65.2429 
 277   0.0000       2.404247        65.4229 
 278   0.0000       2.429623        66.1134 
 279   0.0000       2.431547        66.1658 
 280   0.0000       2.441695        66.4419 
 281   0.0000       2.445996        66.5589 
 282   0.0000       2.461997        66.9943 
 283   0.0000       2.471157        67.2436 
 284   0.0000       2.479002        67.4571 
 285   0.0000       2.516522        68.4780 
 286   0.0000       2.520896        68.5971 
 287   0.0000       2.561113        69.6914 
 288   0.0000       2.588081        70.4253 
 289   0.0000       2.626997        71.4842 
 290   0.0000       2.635351        71.7115 
 291   0.0000       2.670096        72.6570 
 292   0.0000       2.688634        73.1615 
 293   0.0000       2.704584        73.5955 
 294   0.0000       2.727699        74.2245 
 295   0.0000       2.730592        74.3032 
 296   0.0000       2.737162        74.4820 
 297   0.0000       2.741976        74.6130 
 298   0.0000       2.752137        74.8895 
 299   0.0000       2.759194        75.0815 
 300   0.0000       2.788463        75.8779 
 301   0.0000       2.815017        76.6005 
 302   0.0000       2.826259        76.9064 
 303   0.0000       2.837636        77.2160 
 304   0.0000       2.844493        77.4026 
 305   0.0000       2.850855        77.5757 
 306   0.0000       2.856002        77.7158 
 307   0.0000       2.921718        79.5040 
 308   0.0000       2.939968        80.0006 
 309   0.0000       2.964353        80.6641 
 310   0.0000       2.970869        80.8415 
 311   0.0000       2.986024        81.2538 
 312   0.0000       2.991785        81.4106 
 313   0.0000       2.997976        81.5791 
 314   0.0000       3.008723        81.8715 
 315   0.0000       3.038553        82.6832 
 316   0.0000       3.049234        82.9739 
 317   0.0000       3.057881        83.2092 
 318   0.0000       3.090151        84.0873 
 319   0.0000       3.105126        84.4948 
 320   0.0000       3.122843        84.9769 
 321   0.0000       3.171766        86.3081 
 322   0.0000       3.176134        86.4270 
 323   0.0000       3.233037        87.9754 
 324   0.0000       3.256143        88.6042 
 325   0.0000       3.311868        90.1205 
 326   0.0000       3.317985        90.2869 
 327   0.0000       3.387172        92.1696 
 328   0.0000       3.451153        93.9107 
 329   0.0000       3.463843        94.2560 
 330   0.0000       3.538569        96.2894 
 331   0.0000       3.623132        98.5904 
 332   0.0000       3.721216       101.2594 
 333   0.0000       3.765373       102.4610 
 334   0.0000       3.779430       102.8435 
 335   0.0000       3.921500       106.7095 

                    ********************************
                    * MULLIKEN POPULATION ANALYSIS *
                    ********************************

-----------------------
MULLIKEN ATOMIC CHARGES
-----------------------
   0 C :    0.045344
   1 C :   -0.086422
   2 C :   -0.038477
   3 C :    0.036546
   4 C :   -0.037495
   5 C :    0.019725
   6 C :   -0.029310
   7 H :    0.006092
   8 H :    0.012438
   9 N :   -0.054858
  10 N :   -0.064497
  11 C :   -0.029680
  12 C :    0.022634
  13 C :   -0.003275
  14 C :   -0.125879
  15 C :   -0.090462
  16 C :    0.051266
  17 H :    0.020647
  18 H :    0.020063
  19 C :    0.037087
  20 H :    0.059072
  21 C :    0.153352
  22 O :   -0.204494
  23 O :   -0.184031
  24 H :    0.189125
  25 H :    0.073783
  26 H :    0.019359
  27 H :    0.017617
  28 H :    0.018041
  29 H :    0.008415
  30 H :    0.039626
  31 H :    0.039548
  32 H :    0.059104
Sum of atomic charges:   -0.0000000

--------------------------------
MULLIKEN REDUCED ORBITAL CHARGES
--------------------------------
  0 C s       :     2.949659  s :     2.949659
      pz      :     1.021921  p :     2.977492
      px      :     1.014418
      py      :     0.941153
      dz2     :     0.005328  d :     0.027505
      dxz     :     0.006625
      dyz     :     0.003376
      dx2y2   :     0.004956
      dxy     :     0.007219
  1 C s       :     3.049816  s :     3.049816
      pz      :     0.980465  p :     2.991722
      px      :     0.992442
      py      :     1.018815
      dz2     :     0.007190  d :     0.044884
      dxz     :     0.006285
      dyz     :     0.009305
      dx2y2   :     0.010935
      dxy     :     0.011170
  2 C s       :     3.201816  s :     3.201816
      pz      :     0.956272  p :     2.801375
      px      :     0.962039
      py      :     0.883064
      dz2     :     0.004575  d :     0.035286
      dxz     :     0.005001
      dyz     :     0.008084
      dx2y2   :     0.008566
      dxy     :     0.009060
  3 C s       :     3.200013  s :     3.200013
      pz      :     0.942475  p :     2.728704
      px      :     0.880580
      py      :     0.905649
      dz2     :     0.004207  d :     0.034737
      dxz     :     0.004588
      dyz     :     0.008525
      dx2y2   :     0.008231
      dxy     :     0.009188
  4 C s       :     2.993276  s :     2.993276
      pz      :     1.049648  p :     2.987463
      px      :     1.039839
      py      :     0.897976
      dz2     :     0.008754  d :     0.056755
      dxz     :     0.006165
      dyz     :     0.009194
      dx2y2   :     0.016997
      dxy     :     0.015644
  5 C s       :     3.226584  s :     3.226584
      pz      :     0.938040  p :     2.719211
      px      :     0.940888
      py      :     0.840283
      dz2     :     0.004366  d :     0.034480
      dxz     :     0.004977
      dyz     :     0.007664
      dx2y2   :     0.009157
      dxy     :     0.008316
  6 C s       :     3.195631  s :     3.195631
      pz      :     0.960313  p :     2.798571
      px      :     0.910345
      py      :     0.927913
      dz2     :     0.004262  d :     0.035108
      dxz     :     0.004646
      dyz     :     0.008226
      dx2y2   :     0.009135
      dxy     :     0.008839
  7 H s       :     0.970690  s :     0.970690
      pz      :     0.007944  p :     0.023218
      px      :     0.011417
      py      :     0.003856
  8 H s       :     0.964090  s :     0.964090
      pz      :     0.007391  p :     0.023473
      px      :     0.005926
      py      :     0.010155
  9 N s       :     3.551578  s :     3.551578
      pz      :     0.996526  p :     3.459376
      px      :     1.212065
      py      :     1.250785
      dz2     :     0.004190  d :     0.043904
      dxz     :     0.010308
      dyz     :     0.003349
      dx2y2   :     0.016870
      dxy     :     0.009187
 10 N s       :     3.540139  s :     3.540139
      pz      :     1.038182  p :     3.481364
      px      :     0.927866
      py      :     1.515315
      dz2     :     0.004279  d :     0.042994
      dxz     :     0.009052
      dyz     :     0.003769
      dx2y2   :     0.008783
      dxy     :     0.017112
 11 C s       :     2.999878  s :     2.999878
      pz      :     1.049808  p :     2.971951
      px      :     0.965080
      py      :     0.957064
      dz2     :     0.011185  d :     0.057851
      dxz     :     0.011950
      dyz     :     0.007078
      dx2y2   :     0.013339
      dxy     :     0.014300
 12 C s       :     3.221752  s :     3.221752
      pz      :     0.894984  p :     2.721379
      px      :     0.909532
      py      :     0.916863
      dz2     :     0.005967  d :     0.034235
      dxz     :     0.009238
      dyz     :     0.004602
      dx2y2   :     0.007285
      dxy     :     0.007143
 13 C s       :     3.195906  s :     3.195906
      pz      :     0.930208  p :     2.771916
      px      :     0.882767
      py      :     0.958941
      dz2     :     0.006779  d :     0.035453
      dxz     :     0.010023
      dyz     :     0.005128
      dx2y2   :     0.007367
      dxy     :     0.006155
 14 C s       :     3.071765  s :     3.071765
      pz      :     1.009390  p :     3.009832
      px      :     0.984833
      py      :     1.015608
      dz2     :     0.009956  d :     0.044282
      dxz     :     0.011119
      dyz     :     0.006580
      dx2y2   :     0.007818
      dxy     :     0.008809
 15 C s       :     3.215457  s :     3.215457
      pz      :     0.928647  p :     2.839263
      px      :     0.948790
      py      :     0.961827
      dz2     :     0.006384  d :     0.035741
      dxz     :     0.009469
      dyz     :     0.005261
      dx2y2   :     0.007245
      dxy     :     0.007383
 16 C s       :     3.192538  s :     3.192538
      pz      :     0.919815  p :     2.721788
      px      :     0.845862
      py      :     0.956111
      dz2     :     0.006528  d :     0.034408
      dxz     :     0.009665
      dyz     :     0.005285
      dx2y2   :     0.007241
      dxy     :     0.005690
 17 H s       :     0.955432  s :     0.955432
      pz      :     0.008696  p :     0.023921
      px      :     0.011003
      py      :     0.004222
 18 H s       :     0.956710  s :     0.956710
      pz      :     0.012132  p :     0.023228
      px      :     0.003566
      py      :     0.007530
 19 C s       :     2.986707  s :     2.986707
      pz      :     1.034033  p :     2.944571
      px      :     0.953307
      py      :     0.957231
      dz2     :     0.007096  d :     0.031636
      dxz     :     0.003941
      dyz     :     0.005451
      dx2y2   :     0.007976
      dxy     :     0.007172
 20 H s       :     0.918388  s :     0.918388
      pz      :     0.005625  p :     0.022540
      px      :     0.010548
      py      :     0.006367
 21 C s       :     3.077762  s :     3.077762
      pz      :     0.848653  p :     2.627649
      px      :     0.849065
      py      :     0.929932
      dz2     :     0.016831  d :     0.141236
      dxz     :     0.027422
      dyz     :     0.014869
      dx2y2   :     0.043574
      dxy     :     0.038540
 22 O s       :     3.719400  s :     3.719400
      pz      :     1.386580  p :     4.465508
      px      :     1.444053
      py      :     1.634874
      dz2     :     0.003275  d :     0.019586
      dxz     :     0.005468
      dyz     :     0.001787
      dx2y2   :     0.004156
      dxy     :     0.004900
 23 O s       :     3.666480  s :     3.666480
      pz      :     1.698719  p :     4.503724
      px      :     1.210398
      py      :     1.594607
      dz2     :     0.001659  d :     0.013827
      dxz     :     0.001884
      dyz     :     0.002538
      dx2y2   :     0.001683
      dxy     :     0.006064
 24 H s       :     0.739766  s :     0.739766
      pz      :     0.020732  p :     0.071109
      px      :     0.027885
      py      :     0.022492
 25 H s       :     0.902440  s :     0.902440
      pz      :     0.014319  p :     0.023778
      px      :     0.004661
      py      :     0.004798
 26 H s       :     0.957023  s :     0.957023
      pz      :     0.008662  p :     0.023618
      px      :     0.010646
      py      :     0.004310
 27 H s       :     0.958817  s :     0.958817
      pz      :     0.011504  p :     0.023566
      px      :     0.003660
      py      :     0.008402
 28 H s       :     0.958218  s :     0.958218
      pz      :     0.008207  p :     0.023741
      px      :     0.011564
      py      :     0.003970
 29 H s       :     0.968242  s :     0.968242
      pz      :     0.007792  p :     0.023343
      px      :     0.006012
      py      :     0.009539
 30 H s       :     0.936163  s :     0.936163
      pz      :     0.013191  p :     0.024211
      px      :     0.006252
      py      :     0.004768
 31 H s       :     0.936636  s :     0.936636
      pz      :     0.005549  p :     0.023816
      px      :     0.009601
      py      :     0.008665
 32 H s       :     0.916081  s :     0.916081
      pz      :     0.009639  p :     0.024816
      px      :     0.010588
      py      :     0.004589


                     *******************************
                     * LOEWDIN POPULATION ANALYSIS *
                     *******************************

----------------------
LOEWDIN ATOMIC CHARGES
----------------------
   0 C :   -0.048509
   1 C :   -0.021256
   2 C :   -0.028710
   3 C :   -0.023235
   4 C :   -0.057678
   5 C :   -0.012201
   6 C :   -0.028553
   7 H :    0.031520
   8 H :    0.036938
   9 N :    0.006233
  10 N :   -0.005776
  11 C :   -0.038743
  12 C :   -0.013013
  13 C :   -0.015157
  14 C :   -0.048840
  15 C :   -0.048789
  16 C :   -0.022001
  17 H :    0.037343
  18 H :    0.032451
  19 C :   -0.063274
  20 H :    0.051697
  21 C :    0.084035
  22 O :   -0.163319
  23 O :   -0.037403
  24 H :    0.087255
  25 H :    0.053156
  26 H :    0.036983
  27 H :    0.039230
  28 H :    0.035274
  29 H :    0.032451
  30 H :    0.034537
  31 H :    0.034532
  32 H :    0.042820

-------------------------------
LOEWDIN REDUCED ORBITAL CHARGES
-------------------------------
  0 C s       :     2.821357  s :     2.821357
      pz      :     1.070306  p :     3.154003
      px      :     1.063507
      py      :     1.020190
      dz2     :     0.014736  d :     0.073149
      dxz     :     0.017506
      dyz     :     0.007963
      dx2y2   :     0.013197
      dxy     :     0.019748
  1 C s       :     2.848241  s :     2.848241
      pz      :     0.994908  p :     3.062780
      px      :     1.025223
      py      :     1.042649
      dz2     :     0.015808  d :     0.110236
      dxz     :     0.016883
      dyz     :     0.022030
      dx2y2   :     0.027630
      dxy     :     0.027885
  2 C s       :     2.848783  s :     2.848783
      pz      :     1.007899  p :     3.086210
      px      :     1.028943
      py      :     1.049368
      dz2     :     0.010747  d :     0.093717
      dxz     :     0.013354
      dyz     :     0.020644
      dx2y2   :     0.023333
      dxy     :     0.025640
  3 C s       :     2.854539  s :     2.854539
      pz      :     1.012160  p :     3.076552
      px      :     1.009429
      py      :     1.054963
      dz2     :     0.009948  d :     0.092145
      dxz     :     0.011571
      dyz     :     0.022133
      dx2y2   :     0.023769
      dxy     :     0.024723
  4 C s       :     2.843937  s :     2.843937
      pz      :     1.045448  p :     3.071949
      px      :     1.043903
      py      :     0.982597
      dz2     :     0.019603  d :     0.141792
      dxz     :     0.016102
      dyz     :     0.023117
      dx2y2   :     0.045238
      dxy     :     0.037732
  5 C s       :     2.855784  s :     2.855784
      pz      :     0.994929  p :     3.065017
      px      :     1.011033
      py      :     1.059055
      dz2     :     0.010237  d :     0.091400
      dxz     :     0.013150
      dyz     :     0.019182
      dx2y2   :     0.025057
      dxy     :     0.023773
  6 C s       :     2.849268  s :     2.849268
      pz      :     1.007961  p :     3.086122
      px      :     1.018048
      py      :     1.060112
      dz2     :     0.009952  d :     0.093163
      dxz     :     0.011744
      dyz     :     0.021333
      dx2y2   :     0.026157
      dxy     :     0.023977
  7 H s       :     0.899548  s :     0.899548
      pz      :     0.023559  p :     0.068932
      px      :     0.032668
      py      :     0.012705
  8 H s       :     0.892644  s :     0.892644
      pz      :     0.022790  p :     0.070418
      px      :     0.018339
      py      :     0.029290
  9 N s       :     3.221503  s :     3.221503
      pz      :     0.994684  p :     3.677790
      px      :     1.342693
      py      :     1.340413
      dz2     :     0.009121  d :     0.094474
      dxz     :     0.014957
      dyz     :     0.007265
      dx2y2   :     0.036896
      dxy     :     0.026235
 10 N s       :     3.214484  s :     3.214484
      pz      :     1.036901  p :     3.698407
      px      :     1.105735
      py      :     1.555771
      dz2     :     0.009276  d :     0.092884
      dxz     :     0.016588
      dyz     :     0.004440
      dx2y2   :     0.024992
      dxy     :     0.037588
 11 C s       :     2.845896  s :     2.845896
      pz      :     1.066457  p :     3.049615
      px      :     1.000620
      py      :     0.982537
      dz2     :     0.027540  d :     0.143231
      dxz     :     0.031557
      dyz     :     0.018018
      dx2y2   :     0.030120
      dxy     :     0.035997
 12 C s       :     2.854401  s :     2.854401
      pz      :     1.022909  p :     3.067702
      px      :     1.046806
      py      :     0.997987
      dz2     :     0.015525  d :     0.090910
      dxz     :     0.025567
      dyz     :     0.011694
      dx2y2   :     0.019691
      dxy     :     0.018433
 13 C s       :     2.849188  s :     2.849188
      pz      :     1.024876  p :     3.072080
      px      :     1.046919
      py      :     1.000286
      dz2     :     0.017764  d :     0.093890
      dxz     :     0.027219
      dyz     :     0.014027
      dx2y2   :     0.018397
      dxy     :     0.016483
 14 C s       :     2.848694  s :     2.848694
      pz      :     1.054602  p :     3.089179
      px      :     1.033112
      py      :     1.001466
      dz2     :     0.024443  d :     0.110967
      dxz     :     0.029227
      dyz     :     0.017297
      dx2y2   :     0.018679
      dxy     :     0.021321
 15 C s       :     2.851800  s :     2.851800
      pz      :     1.029511  p :     3.102172
      px      :     1.060120
      py      :     1.012541
      dz2     :     0.017041  d :     0.094817
      dxz     :     0.026305
      dyz     :     0.013077
      dx2y2   :     0.019503
      dxy     :     0.018891
 16 C s       :     2.853362  s :     2.853362
      pz      :     1.038159  p :     3.076865
      px      :     1.052363
      py      :     0.986343
      dz2     :     0.017018  d :     0.091774
      dxz     :     0.026746
      dyz     :     0.014327
      dx2y2   :     0.018305
      dxy     :     0.015378
 17 H s       :     0.891964  s :     0.891964
      pz      :     0.026230  p :     0.070693
      px      :     0.030821
      py      :     0.013642
 18 H s       :     0.897774  s :     0.897774
      pz      :     0.034823  p :     0.069775
      px      :     0.012011
      py      :     0.022941
 19 C s       :     2.838580  s :     2.838580
      pz      :     1.067666  p :     3.139475
      px      :     1.040418
      py      :     1.031391
      dz2     :     0.019777  d :     0.085220
      dxz     :     0.009553
      dyz     :     0.014574
      dx2y2   :     0.020755
      dxy     :     0.020561
 20 H s       :     0.879928  s :     0.879928
      pz      :     0.016629  p :     0.068375
      px      :     0.031642
      py      :     0.020103
 21 C s       :     2.853575  s :     2.853575
      pz      :     0.853081  p :     2.757952
      px      :     0.937804
      py      :     0.967067
      dz2     :     0.032579  d :     0.304437
      dxz     :     0.057418
      dyz     :     0.031029
      dx2y2   :     0.098041
      dxy     :     0.085369
 22 O s       :     3.535131  s :     3.535131
      pz      :     1.408759  p :     4.595533
      px      :     1.534954
      py      :     1.651819
      dz2     :     0.004303  d :     0.032656
      dxz     :     0.009446
      dyz     :     0.003086
      dx2y2   :     0.007065
      dxy     :     0.008755
 23 O s       :     3.413008  s :     3.413008
      pz      :     1.677811  p :     4.597298
      px      :     1.286339
      py      :     1.633148
      dz2     :     0.002949  d :     0.027097
      dxz     :     0.004309
      dyz     :     0.003194
      dx2y2   :     0.003435
      dxy     :     0.013210
 24 H s       :     0.729098  s :     0.729098
      pz      :     0.057138  p :     0.183647
      px      :     0.063935
      py      :     0.062573
 25 H s       :     0.877572  s :     0.877572
      pz      :     0.040740  p :     0.069271
      px      :     0.013563
      py      :     0.014968
 26 H s       :     0.893669  s :     0.893669
      pz      :     0.025326  p :     0.069348
      px      :     0.030120
      py      :     0.013901
 27 H s       :     0.890195  s :     0.890195
      pz      :     0.034193  p :     0.070574
      px      :     0.012147
      py      :     0.024234
 28 H s       :     0.893995  s :     0.893995
      pz      :     0.024896  p :     0.070730
      px      :     0.032653
      py      :     0.013181
 29 H s       :     0.898432  s :     0.898432
      pz      :     0.023132  p :     0.069117
      px      :     0.018589
      py      :     0.027395
 30 H s       :     0.898575  s :     0.898575
      pz      :     0.035780  p :     0.066888
      px      :     0.017137
      py      :     0.013970
 31 H s       :     0.898770  s :     0.898770
      pz      :     0.014819  p :     0.066698
      px      :     0.026367
      py      :     0.025512
 32 H s       :     0.889817  s :     0.889817
      pz      :     0.025318  p :     0.067363
      px      :     0.028663
      py      :     0.013382


                      *****************************
                      * MAYER POPULATION ANALYSIS *
                      *****************************

  NA   - Mulliken gross atomic population
  ZA   - Total nuclear charge
  QA   - Mulliken gross atomic charge
  VA   - Mayer's total valence
  BVA  - Mayer's bonded valence
  FA   - Mayer's free valence

  ATOM       NA         ZA         QA         VA         BVA        FA
  0 C      5.9547     6.0000     0.0453     3.9047     3.9047    -0.0000
  1 C      6.0864     6.0000    -0.0864     3.9314     3.9314     0.0000
  2 C      6.0385     6.0000    -0.0385     3.8959     3.8959     0.0000
  3 C      5.9635     6.0000     0.0365     3.8451     3.8451     0.0000
  4 C      6.0375     6.0000    -0.0375     3.9652     3.9652     0.0000
  5 C      5.9803     6.0000     0.0197     3.8630     3.8630     0.0000
  6 C      6.0293     6.0000    -0.0293     3.8698     3.8698    -0.0000
[...]
 22 O s       :     3.725877  s :     3.725877
      pz      :     1.421993  p :     4.470111
      px      :     1.504850
      py      :     1.543269
      dz2     :     0.002343  d :     0.019533
      dxz     :     0.003878
      dyz     :     0.002559
      dx2y2   :     0.004362
      dxy     :     0.006392
 23 O s       :     3.668725  s :     3.668725
      pz      :     1.750488  p :     4.497743
      px      :     1.213810
      py      :     1.533446
      dz2     :     0.001986  d :     0.014032
      dxz     :     0.002176
      dyz     :     0.001796
      dx2y2   :     0.002885
      dxy     :     0.005189
 24 H s       :     0.734158  s :     0.734158
      pz      :     0.018196  p :     0.071109
      px      :     0.024189
      py      :     0.028724
 25 H s       :     0.896740  s :     0.896740
      pz      :     0.014119  p :     0.023468
      px      :     0.004814
      py      :     0.004535
 26 H s       :     0.950725  s :     0.950725
      pz      :     0.009179  p :     0.023265
      px      :     0.010257
      py      :     0.003828
 27 H s       :     0.949064  s :     0.949064
      pz      :     0.011457  p :     0.023027
      px      :     0.003454
      py      :     0.008116
 28 H s       :     0.961898  s :     0.961898
      pz      :     0.009276  p :     0.023156
      px      :     0.009496
      py      :     0.004385
 29 H s       :     0.956421  s :     0.956421
      pz      :     0.008183  p :     0.022877
      px      :     0.006371
      py      :     0.008323
 30 H s       :     0.935360  s :     0.935360
      pz      :     0.013456  p :     0.023634
      px      :     0.005576
      py      :     0.004602
 31 H s       :     0.928050  s :     0.928050
      pz      :     0.005526  p :     0.023218
      px      :     0.010596
      py      :     0.007096
 32 H s       :     0.912011  s :     0.912011
      pz      :     0.008504  p :     0.023675
      px      :     0.010536
      py      :     0.004635


                     *******************************
                     * LOEWDIN POPULATION ANALYSIS *
                     *******************************

----------------------
LOEWDIN ATOMIC CHARGES
----------------------
   0 C :   -0.054453
   1 C :   -0.026839
   2 C :   -0.029426
   3 C :   -0.031815
   4 C :   -0.044078
   5 C :   -0.024987
   6 C :   -0.027787
   7 H :    0.034234
   8 H :    0.039331
   9 N :    0.000012
  10 N :   -0.009275
  11 C :   -0.028632
  12 C :   -0.023524
  13 C :   -0.018064
  14 C :   -0.060094
  15 C :   -0.033916
  16 C :   -0.022957
  17 H :    0.040251
  18 H :    0.037333
  19 C :   -0.066913
  20 H :    0.055500
  21 C :    0.083216
  22 O :   -0.168159
  23 O :   -0.033832
  24 H :    0.085210
  25 H :    0.058602
  26 H :    0.038242
  27 H :    0.042631
  28 H :    0.036838
  29 H :    0.035750
  30 H :    0.035050
  31 H :    0.038027
  32 H :    0.044524

-------------------------------
LOEWDIN REDUCED ORBITAL CHARGES
-------------------------------
  0 C s       :     2.831840  s :     2.831840
      pz      :     1.069582  p :     3.151913
      px      :     1.069763
      py      :     1.012567
      dz2     :     0.015397  d :     0.070700
      dxz     :     0.013488
      dyz     :     0.009479
      dx2y2   :     0.015383
      dxy     :     0.016952
  1 C s       :     2.853799  s :     2.853799
      pz      :     1.017038  p :     3.066042
      px      :     1.005524
      py      :     1.043480
      dz2     :     0.018265  d :     0.106998
      dxz     :     0.015663
      dyz     :     0.025656
      dx2y2   :     0.023574
      dxy     :     0.023840
  2 C s       :     2.857799  s :     2.857799
      pz      :     1.015727  p :     3.081246
      px      :     1.014715
      py      :     1.050805
      dz2     :     0.012943  d :     0.090380
      dxz     :     0.011621
      dyz     :     0.024354
      dx2y2   :     0.019910
      dxy     :     0.021552
  3 C s       :     2.859315  s :     2.859315
      pz      :     1.021422  p :     3.082010
      px      :     1.000711
      py      :     1.059877
      dz2     :     0.011754  d :     0.090490
      dxz     :     0.010913
      dyz     :     0.024933
      dx2y2   :     0.020418
      dxy     :     0.022471
  4 C s       :     2.855016  s :     2.855016
      pz      :     1.053523  p :     3.056712
      px      :     1.037214
      py      :     0.965974
      dz2     :     0.022639  d :     0.132350
      dxz     :     0.015903
      dyz     :     0.025179
      dx2y2   :     0.038001
      dxy     :     0.030630
  5 C s       :     2.860242  s :     2.860242
      pz      :     1.011066  p :     3.075174
      px      :     1.005358
      py      :     1.058750
      dz2     :     0.012397  d :     0.089571
      dxz     :     0.011956
      dyz     :     0.022433
      dx2y2   :     0.020624
      dxy     :     0.022162
  6 C s       :     2.857842  s :     2.857842
      pz      :     1.014759  p :     3.079653
      px      :     1.006821
      py      :     1.058073
      dz2     :     0.011772  d :     0.090292
      dxz     :     0.011105
      dyz     :     0.023534
      dx2y2   :     0.022228
      dxy     :     0.021653
  7 H s       :     0.898971  s :     0.898971
      pz      :     0.026450  p :     0.066795
      px      :     0.026905
      py      :     0.013440
  8 H s       :     0.892364  s :     0.892364
      pz      :     0.023193  p :     0.068305
      px      :     0.019440
      py      :     0.025672
  9 N s       :     3.261924  s :     3.261924
      pz      :     0.992941  p :     3.650152
      px      :     1.372530
      py      :     1.284682
      dz2     :     0.009113  d :     0.087913
      dxz     :     0.013246
      dyz     :     0.006320
      dx2y2   :     0.035757
      dxy     :     0.023476
 10 N s       :     3.258878  s :     3.258878
      pz      :     1.015216  p :     3.662996
      px      :     1.097763
      py      :     1.550017
      dz2     :     0.009015  d :     0.087401
      dxz     :     0.014278
      dyz     :     0.005149
      dx2y2   :     0.023145
      dxy     :     0.035815
 11 C s       :     2.856644  s :     2.856644
      pz      :     1.072566  p :     3.038608
      px      :     0.997268
      py      :     0.968774
      dz2     :     0.028495  d :     0.133380
      dxz     :     0.031261
      dyz     :     0.018695
      dx2y2   :     0.024601
      dxy     :     0.030329
 12 C s       :     2.859881  s :     2.859881
      pz      :     1.027226  p :     3.074335
      px      :     1.038816
      py      :     1.008294
      dz2     :     0.016075  d :     0.089307
      dxz     :     0.023689
      dyz     :     0.013623
      dx2y2   :     0.018801
      dxy     :     0.017120
 13 C s       :     2.858306  s :     2.858306
      pz      :     1.028310  p :     3.068635
      px      :     1.033360
      py      :     1.006965
      dz2     :     0.018026  d :     0.091122
      dxz     :     0.024916
      dyz     :     0.015733
      dx2y2   :     0.017079
      dxy     :     0.015368
 14 C s       :     2.854813  s :     2.854813
      pz      :     1.060063  p :     3.097015
      px      :     1.027587
      py      :     1.009365
      dz2     :     0.025189  d :     0.108265
      dxz     :     0.027048
      dyz     :     0.019686
      dx2y2   :     0.016671
      dxy     :     0.019671
 15 C s       :     2.859780  s :     2.859780
      pz      :     1.030454  p :     3.082414
      px      :     1.045484
      py      :     1.006476
      dz2     :     0.017947  d :     0.091722
      dxz     :     0.023611
      dyz     :     0.015159
      dx2y2   :     0.017625
      dxy     :     0.017380
 16 C s       :     2.858544  s :     2.858544
      pz      :     1.037346  p :     3.074280
      px      :     1.040763
      py      :     0.996171
      dz2     :     0.018552  d :     0.090134
      dxz     :     0.024901
      dyz     :     0.016070
      dx2y2   :     0.016140
      dxy     :     0.014471
 17 H s       :     0.891025  s :     0.891025
      pz      :     0.026469  p :     0.068724
      px      :     0.029776
      py      :     0.012479
 18 H s       :     0.895231  s :     0.895231
      pz      :     0.034516  p :     0.067436
      px      :     0.011338
      py      :     0.021581
 19 C s       :     2.843463  s :     2.843463
      pz      :     1.072806  p :     3.139645
      px      :     1.045935
      py      :     1.020905
      dz2     :     0.018840  d :     0.083805
      dxz     :     0.010060
      dyz     :     0.013334
      dx2y2   :     0.021171
      dxy     :     0.020400
 20 H s       :     0.876806  s :     0.876806
      pz      :     0.017559  p :     0.067694
      px      :     0.035009
      py      :     0.015126
 21 C s       :     2.855610  s :     2.855610
      pz      :     0.824075  p :     2.758428
      px      :     0.933784
      py      :     1.000570
      dz2     :     0.022358  d :     0.302746
      dxz     :     0.058629
      dyz     :     0.025096
      dx2y2   :     0.123075
      dxy     :     0.073587
 22 O s       :     3.535720  s :     3.535720
      pz      :     1.421557  p :     4.599905
      px      :     1.583814
      py      :     1.594534
      dz2     :     0.004372  d :     0.032535
      dxz     :     0.005205
      dyz     :     0.003475
      dx2y2   :     0.006399
      dxy     :     0.013084
 23 O s       :     3.413540  s :     3.413540
      pz      :     1.715067  p :     4.592929
      px      :     1.288686
      py      :     1.589176
      dz2     :     0.003675  d :     0.027363
      dxz     :     0.004151
      dyz     :     0.001810
      dx2y2   :     0.006249
      dxy     :     0.011478
 24 H s       :     0.729481  s :     0.729481
      pz      :     0.049883  p :     0.185308
      px      :     0.054704
      py      :     0.080721
 25 H s       :     0.873604  s :     0.873604
      pz      :     0.040023  p :     0.067794
      px      :     0.013875
      py      :     0.013896
 26 H s       :     0.894435  s :     0.894435
      pz      :     0.026293  p :     0.067323
      px      :     0.028667
      py      :     0.012362
 27 H s       :     0.888910  s :     0.888910
      pz      :     0.033929  p :     0.068459
      px      :     0.011383
      py      :     0.023146
 28 H s       :     0.894568  s :     0.894568
      pz      :     0.027440  p :     0.068594
      px      :     0.027236
      py      :     0.013917
 29 H s       :     0.897072  s :     0.897072
      pz      :     0.024061  p :     0.067178
      px      :     0.019144
      py      :     0.023972
 30 H s       :     0.899910  s :     0.899910
      pz      :     0.036606  p :     0.065040
      px      :     0.014798
      py      :     0.013636
 31 H s       :     0.896975  s :     0.896975
      pz      :     0.014609  p :     0.064998
      px      :     0.029149
      py      :     0.021240
 32 H s       :     0.890155  s :     0.890155
      pz      :     0.022638  p :     0.065321
      px      :     0.028922
      py      :     0.013761


                      *****************************
                      * MAYER POPULATION ANALYSIS *
                      *****************************

  NA   - Mulliken gross atomic population
  ZA   - Total nuclear charge
  QA   - Mulliken gross atomic charge
  VA   - Mayer's total valence
  BVA  - Mayer's bonded valence
  FA   - Mayer's free valence

  ATOM       NA         ZA         QA         VA         BVA        FA
  0 C      5.9769     6.0000     0.0231     3.9102     3.9102     0.0000
  1 C      6.0817     6.0000    -0.0817     3.9313     3.9313     0.0000
  2 C      6.0505     6.0000    -0.0505     3.9020     3.9020    -0.0000
  3 C      5.9679     6.0000     0.0321     3.8542     3.8542    -0.0000
  4 C      6.0220     6.0000    -0.0220     3.9483     3.9483    -0.0000
  5 C      5.9862     6.0000     0.0138     3.8733     3.8733     0.0000
  6 C      6.0413     6.0000    -0.0413     3.8861     3.8861     0.0000
  7 H      0.9848     1.0000     0.0152     0.9928     0.9928     0.0000
  8 H      0.9792     1.0000     0.0208     0.9993     0.9993    -0.0000
  9 N      7.0719     7.0000    -0.0719     2.9110     2.9110     0.0000
 10 N      7.0755     7.0000    -0.0755     2.9148     2.9148    -0.0000
 11 C      6.0280     6.0000    -0.0280     3.9669     3.9669    -0.0000
 12 C      5.9780     6.0000     0.0220     3.8699     3.8699     0.0000
 13 C      6.0142     6.0000    -0.0142     3.8698     3.8698     0.0000
 14 C      6.1569     6.0000    -0.1569     3.8313     3.8313     0.0000
 15 C      6.0670     6.0000    -0.0670     3.8947     3.8947    -0.0000
 16 C      5.9394     6.0000     0.0606     3.8574     3.8574    -0.0000
 17 H      0.9793     1.0000     0.0207     0.9995     0.9995    -0.0000
 18 H      0.9728     1.0000     0.0272     0.9932     0.9932     0.0000
 19 C      5.9662     6.0000     0.0338     3.7560     3.7560    -0.0000
 20 H      0.9313     1.0000     0.0687     1.0065     1.0065    -0.0000
 21 C      5.8512     6.0000     0.1488     4.4065     4.4065    -0.0000
 22 O      8.2155     8.0000    -0.2155     2.2694     2.2694    -0.0000
 23 O      8.1805     8.0000    -0.1805     2.2414     2.2414    -0.0000
 24 H      0.8053     1.0000     0.1947     1.0308     1.0308     0.0000
 25 H      0.9202     1.0000     0.0798     0.9939     0.9939     0.0000
 26 H      0.9740     1.0000     0.0260     0.9931     0.9931     0.0000
 27 H      0.9721     1.0000     0.0279     0.9987     0.9987     0.0000
 28 H      0.9851     1.0000     0.0149     0.9993     0.9993    -0.0000
 29 H      0.9793     1.0000     0.0207     0.9929     0.9929    -0.0000
 30 H      0.9590     1.0000     0.0410     0.9944     0.9944    -0.0000
 31 H      0.9513     1.0000     0.0487     0.9942     0.9942    -0.0000
 32 H      0.9357     1.0000     0.0643     0.9886     0.9886     0.0000

  Mayer bond orders larger than 0.100000
B(  0-C ,  1-C ) :   1.0389 B(  0-C , 30-H ) :   0.9674 B(  0-C , 31-H ) :   0.9677 
B(  0-C , 32-H ) :   0.9590 B(  1-C ,  2-C ) :   1.3888 B(  1-C ,  6-C ) :   1.3936 
B(  2-C ,  3-C ) :   1.3995 B(  2-C , 29-H ) :   0.9874 B(  3-C ,  4-C ) :   1.3529 
B(  3-C , 28-H ) :   0.9888 B(  4-C ,  5-C ) :   1.3928 B(  4-C ,  9-N ) :   1.0147 
B(  5-C ,  6-C ) :   1.3862 B(  5-C ,  8-H ) :   0.9927 B(  6-C ,  7-H ) :   0.9894 
B(  9-N , 10-N ) :   1.7960 B( 10-N , 11-C ) :   1.0130 B( 11-C , 12-C ) :   1.3818 
B( 11-C , 16-C ) :   1.3687 B( 12-C , 13-C ) :   1.3958 B( 12-C , 27-H ) :   0.9941 
B( 13-C , 14-C ) :   1.3762 B( 13-C , 26-H ) :   0.9924 B( 14-C , 15-C ) :   1.3660 
B( 14-C , 19-C ) :   0.9906 B( 15-C , 16-C ) :   1.3907 B( 15-C , 18-H ) :   0.9912 
B( 16-C , 17-H ) :   0.9896 B( 19-C , 20-H ) :   0.9341 B( 19-C , 21-C ) :   0.9601 
B( 19-C , 25-H ) :   0.9284 B( 21-C , 22-O ) :   2.1403 B( 21-C , 23-O ) :   1.2155 
B( 23-O , 24-H ) :   0.9408 

-------
TIMINGS
-------

Total SCF time: 0 days 0 hours 3 min 42 sec 

Total time                  ....     222.843 sec
Sum of individual times     ....     222.553 sec  ( 99.9%)

Fock matrix formation       ....     218.988 sec  ( 98.3%)
  XC integration            ....       7.631 sec  (  3.5% of F)
    Basis function eval.    ....       2.406 sec  ( 31.5% of XC)
    Density eval.           ....       1.613 sec  ( 21.1% of XC)
    XC-Functional eval.     ....       1.661 sec  ( 21.8% of XC)
    XC-Potential eval.      ....       1.738 sec  ( 22.8% of XC)
Diagonalization             ....       0.017 sec  (  0.0%)
Density matrix formation    ....       0.019 sec  (  0.0%)
Population analysis         ....       0.014 sec  (  0.0%)
Initial guess               ....       0.018 sec  (  0.0%)
Orbital Transformation      ....       0.000 sec  (  0.0%)
Orbital Orthonormalization  ....       0.013 sec  (  0.0%)
DIIS solution               ....       0.005 sec  (  0.0%)
SOSCF solution              ....       0.080 sec  (  0.0%)
Grid generation             ....       3.412 sec  (  1.5%)


-------------------------------------------------------------------------------
                          DFT DISPERSION CORRECTION                            
                                                                               
                              DFTD3 V3.1  Rev 1                                
                              USING zero damping                               
-------------------------------------------------------------------------------
The omegaB97X-D3 functional is recognized. Fit by Chai et al.
Active option DFTDOPT                   ...         3   

molecular C6(AA) [au] = 12940.886808 


            DFT-D V3
 parameters
 s6 scaling factor         :     1.0000 
 rs6 scaling factor        :     1.2810 
 s8 scaling factor         :     1.0000 
 rs8 scaling factor        :     1.0940 
 Damping factor alpha6     :    14.0000 
 Damping factor alpha8     :    16.0000 
 ad hoc parameters k1-k3   :    16.0000     1.3333    -4.0000 

 Edisp/kcal,au: -9.768331355614  -0.015566825231 
 E6   /kcal   :  -4.696033017 
 E8   /kcal   :  -5.072298339 
 % E8         :  51.925944713 

-------------------------   ----------------
Dispersion correction           -0.015566825
-------------------------   ----------------


-------------------------   --------------------
FINAL SINGLE POINT ENERGY      -839.095421806498
-------------------------   --------------------

                                *** OPTIMIZATION RUN DONE ***

                            ***************************************
                            *     ORCA property calculations      *
                            ***************************************

                                    ---------------------
                                    Active property flags
                                    ---------------------
   (+) Dipole Moment


------------------------------------------------------------------------------
                       ORCA ELECTRIC PROPERTIES CALCULATION
------------------------------------------------------------------------------

Dipole Moment Calculation                       ... on
Quadrupole Moment Calculation                   ... off
Polarizability Calculation                      ... off
GBWName                                         ... 000246470.gbw
Electron density file                           ... 000246470.scfp
The origin for moment calculation is the CENTER OF MASS  = (-0.154567,  0.006131  0.015216)

-------------
DIPOLE MOMENT
-------------
                                X             Y             Z
Electronic contribution:      4.62733       8.11595      -1.52830
Nuclear contribution   :     -5.37964      -8.02136       2.13258
                        -----------------------------------------
Total Dipole Moment    :     -0.75231       0.09460       0.60427
                        -----------------------------------------
Magnitude (a.u.)       :      0.96957
Magnitude (Debye)      :      2.46445



--------------------
Rotational spectrum 
--------------------
 
Rotational constants in cm-1:     0.017546     0.008996     0.006577 
Rotational constants in MHz :   526.007086   269.701096   197.183082 

 Dipole components along the rotational axes: 
x,y,z [a.u.] :     0.748862    -0.002249     0.615843 
x,y,z [Debye]:     1.903457    -0.005717     1.565348 

 

Timings for individual modules:

Sum of individual times         ...     7398.786 sec (= 123.313 min)
GTO integral calculation        ...        5.303 sec (=   0.088 min)   0.1 %
SCF iterations                  ...     4938.779 sec (=  82.313 min)  66.8 %
SCF Gradient evaluation         ...     2443.966 sec (=  40.733 min)  33.0 %
Geometry relaxation             ...       10.737 sec (=   0.179 min)   0.1 %
                             ****ORCA TERMINATED NORMALLY****
TOTAL RUN TIME: 0 days 2 hours 3 minutes 21 seconds 798 msec
