
                                 *****************
                                 * O   R   C   A *
                                 *****************

           --- An Ab Initio, DFT and Semiempirical electronic structure package ---

                  #######################################################
                  #                        -***-                        #
                  #          Department of theory and spectroscopy      #
                  #               Directorship: Frank Neese             #
                  #        Max Planck Institute fuer Kohlenforschung    #
                  #                Kaiser Wilhelm Platz 1               #
                  #                 D-45470 Muelheim/Ruhr               #
                  #                      Germany                        #
                  #                                                     #
                  #                  All rights reserved                #
                  #                        -***-                        #
                  #######################################################


                         Program Version 4.2.0 -  RELEASE  -


 With contributions from (in alphabetic order):
   Daniel Aravena         : Magnetic Suceptibility
   Michael Atanasov       : Ab Initio Ligand Field Theory (pilot matlab implementation)
   Alexander A. Auer      : GIAO ZORA, VPT2
   Ute Becker             : Parallelization
   Giovanni Bistoni       : ED, misc. LED, open-shell LED, HFLED
   Martin Brehm           : Molecular dynamics
   Dmytro Bykov           : SCF Hessian
   Vijay G. Chilkuri      : MRCI spin determinant printing, contributions to CSF-ICE
   Dipayan Datta          : RHF DLPNO-CCSD density
   Achintya Kumar Dutta   : EOM-CC, STEOM-CC
   Dmitry Ganyushin       : Spin-Orbit,Spin-Spin,Magnetic field MRCI
   Miquel Garcia          : C-PCM Hessian, Gaussian charge scheme
   Yang Guo               : DLPNO-NEVPT2, CIM, IAO-localization
   Andreas Hansen         : Spin unrestricted coupled pair/coupled cluster methods
   Benjamin Helmich-Paris : CASSCF linear response (MC-RPA)
   Lee Huntington         : MR-EOM, pCC
   Robert Izsak           : Overlap fitted RIJCOSX, COSX-SCS-MP3, EOM
   Christian Kollmar      : KDIIS, OOCD, Brueckner-CCSD(T), CCSD density
   Simone Kossmann        : Meta GGA functionals, TD-DFT gradient, OOMP2, MP2 Hessian
   Martin Krupicka        : AUTO-CI
   Lucas Lang             : DCDCAS
   Dagmar Lenk            : GEPOL surface, SMD
   Dimitrios Liakos       : Extrapolation schemes; Compound Job, initial MDCI parallelization
   Dimitrios Manganas     : Further ROCIS development; embedding schemes
   Dimitrios Pantazis     : SARC Basis sets
   Taras Petrenko         : DFT Hessian,TD-DFT gradient, ASA, ECA, R-Raman, ABS, FL, XAS/XES, NRVS
   Peter Pinski           : DLPNO-MP2, DLPNO-MP2 Gradient
   Christoph Reimann      : Effective Core Potentials
   Marius Retegan         : Local ZFS, SOC
   Christoph Riplinger    : Optimizer, TS searches, QM/MM, DLPNO-CCSD(T), (RO)-DLPNO pert. Triples
   Tobias Risthaus        : Range-separated hybrids, TD-DFT gradient, RPA, STAB
   Michael Roemelt        : Original ROCIS implementation
   Masaaki Saitow         : Open-shell DLPNO-CCSD energy and density
   Barbara Sandhoefer     : DKH picture change effects
   Avijit Sen             : IP-ROCIS
   Kantharuban Sivalingam : CASSCF convergence, NEVPT2, FIC-MRCI
   Bernardo de Souza      : ESD, SOC TD-DFT
   Georgi Stoychev        : AutoAux, RI-MP2 NMR
   Willem Van den Heuvel  : Paramagnetic NMR
   Boris Wezisla          : Elementary symmetry handling
   Frank Wennmohs         : Technical directorship


 We gratefully acknowledge several colleagues who have allowed us to
 interface, adapt or use parts of their codes:
   Stefan Grimme, W. Hujo, H. Kruse,             : VdW corrections, initial TS optimization,
                  C. Bannwarth                     DFT functionals, gCP, sTDA/sTD-DF
   Ed Valeev, F. Pavosevic, A. Kumar             : LibInt (2-el integral package), F12 methods
   Garnet Chan, S. Sharma, J. Yang, R. Olivares  : DMRG
   Ulf Ekstrom                                   : XCFun DFT Library
   Mihaly Kallay                                 : mrcc  (arbitrary order and MRCC methods)
   Andreas Klamt, Michael Diedenhofen            : otool_cosmo (COSMO solvation model)
   Jiri Pittner, Ondrej Demel                    : Mk-CCSD
   Frank Weinhold                                : gennbo (NPA and NBO analysis)
   Christopher J. Cramer and Donald G. Truhlar   : smd solvation model
   Lars Goerigk                                  : TD-DFT with DH, B97 family of functionals
   V. Asgeirsson, H. Jonsson                     : NEB implementation
   FAccTs GmbH                                   : IRC, NEB, NEB-TS, Multilevel, MM, QM/MM, CI optimization
   S Lehtola, MJT Oliveira, MAL Marques          : LibXC Library


 Your calculation uses the libint2 library for the computation of 2-el integrals
 For citations please refer to: http://libint.valeyev.net

 Your ORCA version has been built with support for libXC version: 4.2.3
 For citations please refer to: https://tddft.org/programs/libxc/

 This ORCA versions uses:
   CBLAS   interface :  Fast vector & matrix operations
   LAPACKE interface :  Fast linear algebra routines
   SCALAPACK package :  Parallel linear algebra routines


Your calculation utilizes the atom-pairwise dispersion correction
with the zero-damping scheme (D30)
Cite in your paper:
S.Grimme, J.Antony, S.Ehrlich and H.Krieg, J.Chem.Phys., 132, (2010), 154104 
   

XCFun DFT library Copyright 2009-2010 Ulf Ekstrom and contributors.
See http://admol.org/xcfun for more information. This is free soft-
ware; see the source code for copying conditions. There is ABSOLUTELY
NO WARRANTY; not even for MERCHANTABILITY or FITNESS FOR A PARTICULAR
PURPOSE. For details see the documentation. Scientific users of this 
library should cite U. Ekstrom, L. Visscher, R. Bast, A. J. Thorvald-
sen and K. Ruud; J.Chem.Theor.Comp. 2010, DOI: 10.1021/ct100117s
XCFun Version 0.99 
----- Orbital basis set information -----
Your calculation utilizes the basis: def2-SVP
   F. Weigend and R. Ahlrichs, Phys. Chem. Chem. Phys. 7, 3297 (2005).

================================================================================
                                        WARNINGS
                       Please study these warnings very carefully!
================================================================================


WARNING: Geometry Optimization
  ===> : Switching off AutoStart
         For restart on a previous wavefunction, please use MOREAD

INFO   : the flag for use of LIBINT has been found!

================================================================================
                                       INPUT FILE
================================================================================
NAME = 010261645.inp
|  1> # ORCA input file
|  2> # -38.70189215
|  3> ! wB97X-D3 def2-SVP Opt
|  4> * xyz 0 1
|  5>    C       -4.08630        -0.21600         0.60900
|  6>    C       -2.64860        -0.23560         0.19390
|  7>    C       -1.89310         0.91840         0.14300
|  8>    C       -0.53810         0.90140        -0.21620
|  9>    C        0.06350        -0.31360        -0.59100
| 10>    C       -0.71080        -1.46930        -0.54960
| 11>    C       -2.03180        -1.43790        -0.15420
| 12>    H       -2.60250        -2.35430        -0.12090
| 13>    H       -0.25490        -2.40850        -0.82460
| 14>    C        1.48960        -0.42440        -1.03710
| 15>    H        1.58730        -1.23920        -1.75490
| 16>    H        1.84980         0.50450        -1.47980
| 17>    C        2.34800        -0.78220         0.18900
| 18>    O        2.64110        -1.91340         0.45200
| 19>    O        2.70960         0.24480         0.93930
| 20>    H        2.36480         1.10100         0.58700
| 21>    C        0.16780         2.17390        -0.18060
| 22>    O        1.37000         2.34190        -0.11770
| 23>    H       -0.50240         3.05170        -0.19510
| 24>    H       -2.34300         1.86440         0.41090
| 25>    H       -4.70670        -0.69200        -0.14850
| 26>    H       -4.43650         0.80150         0.76030
| 27>    H       -4.21490        -0.76900         1.53870
| 28> *
| 29> 
| 30>                          ****END OF INPUT****
================================================================================

                       *****************************
                       * Geometry Optimization Run *
                       *****************************

Geometry optimization settings:
Update method            Update   .... BFGS
Choice of coordinates    CoordSys .... Z-matrix Internals
Initial Hessian          InHess   .... Almoef's Model

Convergence Tolerances:
Energy Change            TolE     ....  5.0000e-06 Eh
Max. Gradient            TolMAXG  ....  3.0000e-04 Eh/bohr
RMS Gradient             TolRMSG  ....  1.0000e-04 Eh/bohr
Max. Displacement        TolMAXD  ....  4.0000e-03 bohr
RMS Displacement         TolRMSD  ....  2.0000e-03 bohr
Strict Convergence                ....  False
------------------------------------------------------------------------------
                        ORCA OPTIMIZATION COORDINATE SETUP
------------------------------------------------------------------------------

The optimization will be done in new redundant internal coordinates
Making redundant internal coordinates   ...  (new redundants) done
Evaluating the initial hessian          ...  (Almloef) done
Evaluating the coordinates              ...  done
Calculating the B-matrix                .... done
Calculating the G-matrix                .... done
Diagonalizing the G-matrix              .... done
Small eigenvalue found = 2.112e-02
Small eigenvalue found = 2.928e-02
The first mode is                       ....   45
The number of degrees of freedom        ....   63

    -----------------------------------------------------------------
                    Redundant Internal Coordinates


    -----------------------------------------------------------------
         Definition                    Initial Value    Approx d2E/dq
    -----------------------------------------------------------------
      1. B(C   1,C   0)                  1.4966         0.422414   
      2. B(C   2,C   1)                  1.3802         0.647584   
      3. B(C   3,C   2)                  1.4019         0.598059   
      4. B(C   4,C   3)                  1.4066         0.587757   
      5. B(C   5,C   4)                  1.3917         0.620851   
      6. B(C   6,C   5)                  1.3793         0.649932   
      7. B(C   6,C   1)                  1.3954         0.612524   
      8. B(H   7,C   6)                  1.0801         0.373450   
      9. B(H   8,C   5)                  1.0796         0.374105   
     10. B(C   9,C   4)                  1.4983         0.419641   
     11. B(H  10,C   9)                  1.0903         0.359748   
     12. B(H  11,C   9)                  1.0902         0.359807   
     13. B(C  12,C   9)                  1.5389         0.361567   
     14. B(O  13,C  12)                  1.1978         1.133813   
     15. B(O  14,C  12)                  1.3223         0.717650   
     16. B(H  15,O  14)                  0.9880         0.469187   
     17. B(C  16,C   3)                  1.4556         0.490967   
     18. B(O  17,C  16)                  1.2155         1.062338   
     19. B(H  18,C  16)                  1.1045         0.341425   
     20. B(H  19,C   2)                  1.0812         0.371866   
     21. B(H  20,C   0)                  1.0887         0.361817   
     22. B(H  21,C   0)                  1.0867         0.364541   
     23. B(H  22,C   0)                  1.0894         0.360957   
     24. A(C   1,C   0,H  20)          110.4094         0.331215   
     25. A(H  20,C   0,H  22)          107.7334         0.291166   
     26. A(H  20,C   0,H  21)          108.8213         0.291618   
     27. A(C   1,C   0,H  22)          110.0891         0.331085   
     28. A(H  21,C   0,H  22)          108.5697         0.291509   
     29. A(C   1,C   0,H  21)          111.1297         0.331627   
     30. A(C   0,C   1,C   6)          120.3392         0.404493   
     31. A(C   2,C   1,C   6)          117.9846         0.436527   
     32. A(C   0,C   1,C   2)          121.6762         0.408493   
     33. A(C   1,C   2,H  19)          119.6439         0.357469   
     34. A(C   1,C   2,C   3)          121.8948         0.434652   
     35. A(C   3,C   2,H  19)          118.4418         0.352677   
     36. A(C   4,C   3,C  16)          123.6565         0.412382   
     37. A(C   2,C   3,C   4)          119.4802         0.427151   
     38. A(C   2,C   3,C  16)          116.8629         0.413656   
     39. A(C   5,C   4,C   9)          118.4886         0.404987   
     40. A(C   3,C   4,C   9)          123.3855         0.401094   
     41. A(C   3,C   4,C   5)          118.1254         0.430026   
     42. A(C   4,C   5,C   6)          121.4988         0.437876   
     43. A(C   6,C   5,H   8)          119.8195         0.358054   
     44. A(C   4,C   5,H   8)          118.6781         0.355280   
     45. A(C   5,C   6,H   7)          119.7083         0.357947   
     46. A(C   1,C   6,H   7)          119.3266         0.354363   
     47. A(C   1,C   6,C   5)          120.9628         0.436812   
     48. A(C   4,C   9,H  10)          109.6681         0.330541   
     49. A(H  11,C   9,C  12)          109.7146         0.322542   
     50. A(H  10,C   9,C  12)          107.5060         0.322533   
     51. A(C   4,C   9,C  12)          108.1128         0.368593   
     52. A(H  10,C   9,H  11)          109.8652         0.290758   
     53. A(C   4,C   9,H  11)          111.8607         0.330550   
     54. A(O  13,C  12,O  14)          122.8200         0.491195   
     55. A(C   9,C  12,O  14)          115.0906         0.402099   
     56. A(C   9,C  12,O  13)          122.0742         0.436248   
     57. A(C  12,O  14,H  15)          112.0440         0.372899   
     58. A(O  17,C  16,H  18)          119.4051         0.381122   
     59. A(C   3,C  16,H  18)          113.5899         0.336333   
     60. A(C   3,C  16,O  17)          126.9940         0.455700   
     61. D(C   6,C   1,C   0,H  22)     64.7457         0.013190   
     62. D(C   2,C   1,C   0,H  20)    125.9879         0.013190   
     63. D(C   2,C   1,C   0,H  21)      5.1350         0.013190   
     64. D(C   6,C   1,C   0,H  20)    -54.0786         0.013190   
     65. D(C   2,C   1,C   0,H  22)   -115.1878         0.013190   
     66. D(C   6,C   1,C   0,H  21)   -174.9315         0.013190   
     67. D(C   3,C   2,C   1,C   0)    178.5417         0.029184   
     68. D(H  19,C   2,C   1,C   6)   -179.7604         0.029184   
     69. D(C   3,C   2,C   1,C   6)     -1.3933         0.029184   
     70. D(H  19,C   2,C   1,C   0)      0.1746         0.029184   
     71. D(C  16,C   3,C   2,C   1)   -177.5342         0.024649   
     72. D(C   4,C   3,C   2,H  19)   -178.9055         0.024649   
     73. D(C  16,C   3,C   2,H  19)      0.8518         0.024649   
     74. D(C   4,C   3,C   2,C   1)      2.7085         0.024649   
     75. D(C   5,C   4,C   3,C   2)     -1.9563         0.023765   
     76. D(C   9,C   4,C   3,C  16)     -1.9876         0.023765   
     77. D(C   5,C   4,C   3,C  16)    178.3038         0.023765   
     78. D(C   9,C   4,C   3,C   2)    177.7523         0.023765   
     79. D(H   8,C   5,C   4,C   9)      0.9659         0.026677   
     80. D(C   6,C   5,C   4,C   9)   -179.7207         0.026677   
     81. D(C   6,C   5,C   4,C   3)      0.0024         0.026677   
     82. D(H   8,C   5,C   4,C   3)   -179.3109         0.026677   
     83. D(H   7,C   6,C   5,H   8)      0.0730         0.029411   
     84. D(H   7,C   6,C   5,C   4)   -179.2327         0.029411   
     85. D(C   1,C   6,C   5,H   8)   -179.3749         0.029411   
     86. D(C   1,C   6,C   5,C   4)      1.3195         0.029411   
     87. D(H   7,C   6,C   1,C   2)    179.9283         0.025924   
     88. D(H   7,C   6,C   1,C   0)     -0.0076         0.025924   
     89. D(C   5,C   6,C   1,C   2)     -0.6218         0.025924   
     90. D(C   5,C   6,C   1,C   0)    179.4423         0.025924   
     91. D(H  10,C   9,C   4,C   3)   -149.0146         0.013022   
     92. D(C  12,C   9,C   4,C   5)    -86.2439         0.013022   
     93. D(C  12,C   9,C   4,C   3)     94.0485         0.013022   
     94. D(H  11,C   9,C   4,C   5)    152.8485         0.013022   
     95. D(H  11,C   9,C   4,C   3)    -26.8591         0.013022   
     96. D(H  10,C   9,C   4,C   5)     30.6930         0.013022   
     97. D(O  14,C  12,C   9,H  11)     38.7659         0.009824   
     98. D(O  14,C  12,C   9,H  10)    158.2065         0.009824   
     99. D(O  14,C  12,C   9,C   4)    -83.4675         0.009824   
    100. D(O  13,C  12,C   9,H  11)   -142.6174         0.009824   
    101. D(O  13,C  12,C   9,H  10)    -23.1768         0.009824   
    102. D(O  13,C  12,C   9,C   4)     95.1491         0.009824   
    103. D(H  15,O  14,C  12,O  13)   -178.6480         0.038757   
    104. D(H  15,O  14,C  12,C   9)     -0.0428         0.038757   
    105. D(H  18,C  16,C   3,C   4)    160.8737         0.016414   
    106. D(H  18,C  16,C   3,C   2)    -18.8725         0.016414   
    107. D(O  17,C  16,C   3,C   4)    -20.3512         0.016414   
    108. D(O  17,C  16,C   3,C   2)    159.9026         0.016414   
    -----------------------------------------------------------------

Number of atoms                         .... 23
Number of degrees of freedom            .... 108

         *************************************************************
         *                GEOMETRY OPTIMIZATION CYCLE   1            *
         *************************************************************
---------------------------------
CARTESIAN COORDINATES (ANGSTROEM)
---------------------------------
  C     -4.086300   -0.216000    0.609000
  C     -2.648600   -0.235600    0.193900
  C     -1.893100    0.918400    0.143000
  C     -0.538100    0.901400   -0.216200
  C      0.063500   -0.313600   -0.591000
  C     -0.710800   -1.469300   -0.549600
  C     -2.031800   -1.437900   -0.154200
  H     -2.602500   -2.354300   -0.120900
  H     -0.254900   -2.408500   -0.824600
  C      1.489600   -0.424400   -1.037100
  H      1.587300   -1.239200   -1.754900
  H      1.849800    0.504500   -1.479800
  C      2.348000   -0.782200    0.189000
  O      2.641100   -1.913400    0.452000
  O      2.709600    0.244800    0.939300
  H      2.364800    1.101000    0.587000
  C      0.167800    2.173900   -0.180600
  O      1.370000    2.341900   -0.117700
  H     -0.502400    3.051700   -0.195100
  H     -2.343000    1.864400    0.410900
  H     -4.706700   -0.692000   -0.148500
  H     -4.436500    0.801500    0.760300
  H     -4.214900   -0.769000    1.538700

----------------------------
CARTESIAN COORDINATES (A.U.)
----------------------------
  NO LB      ZA    FRAG     MASS         X           Y           Z
   0 C     6.0000    0    12.011   -7.721988   -0.408181    1.150843
   1 C     6.0000    0    12.011   -5.005129   -0.445219    0.366418
   2 C     6.0000    0    12.011   -3.577441    1.735524    0.270231
   3 C     6.0000    0    12.011   -1.016862    1.703399   -0.408559
   4 C     6.0000    0    12.011    0.119998   -0.592618   -1.116828
   5 C     6.0000    0    12.011   -1.343217   -2.776575   -1.038593
   6 C     6.0000    0    12.011   -3.839546   -2.717237   -0.291396
   7 H     1.0000    0     1.008   -4.918012   -4.448982   -0.228468
   8 H     1.0000    0     1.008   -0.481691   -4.551405   -1.558268
   9 C     6.0000    0    12.011    2.814936   -0.802000   -1.959835
  10 H     1.0000    0     1.008    2.999562   -2.341749   -3.316280
  11 H     1.0000    0     1.008    3.495615    0.953367   -2.796417
  12 C     6.0000    0    12.011    4.437077   -1.478144    0.357158
  13 O     8.0000    0    15.999    4.990956   -3.615802    0.854156
  14 O     8.0000    0    15.999    5.120402    0.462605    1.775020
  15 H     1.0000    0     1.008    4.468824    2.080588    1.109269
  16 C     6.0000    0    12.011    0.317096    4.108076   -0.341285
  17 O     8.0000    0    15.999    2.588925    4.425550   -0.222421
  18 H     1.0000    0     1.008   -0.949398    5.766877   -0.368686
  19 H     1.0000    0     1.008   -4.427628    3.523205    0.776488
  20 H     1.0000    0     1.008   -8.894374   -1.307690   -0.280624
  21 H     1.0000    0     1.008   -8.383770    1.514615    1.436759
  22 H     1.0000    0     1.008   -7.965007   -1.453199    2.907722

--------------------------------
INTERNAL COORDINATES (ANGSTROEM)
--------------------------------
 C      0   0   0     0.000000000000     0.00000000     0.00000000
 C      1   0   0     1.496553861376     0.00000000     0.00000000
 C      2   1   0     1.380248912334   121.67618588     0.00000000
 C      3   2   1     1.401905360572   121.89480482   178.54169565
 C      4   3   2     1.406635205019   119.48020416     2.70847700
 C      5   4   3     1.391724448301   118.12535629   358.04367307
 C      6   5   4     1.379263615122   121.49881688     0.00000000
 H      7   6   5     1.080090894323   119.70827496   180.76734292
 H      6   5   4     1.079614028253   118.67814121   180.68910175
 C      5   4   3     1.498346775616   123.38547141   177.75228348
 H     10   5   4     1.090266559150   109.66805646   210.98543136
 H     10   5   4     1.090221326154   111.86072764   333.14092574
 C     10   5   4     1.538893306893   108.11278024    94.04848101
 O     13  10   5     1.197785477454   122.07420077    95.14909080
 O     13  10   5     1.322283498347   115.09055128   276.53246824
 H     15  13  10     0.987968000494   112.04403640   359.95716956
 C      4   3   2     1.455616165066   116.86285104   182.46579334
 O     17   4   3     1.215510283790   126.99395937   159.90256887
 H     17   4   3     1.104495871427   113.58989486   341.12754082
 H      3   2   1     1.081247621963   119.64390405     0.17456814
 H      1   2   3     1.088704923292   110.40941214   125.98788250
 H      1   2   3     1.086663692225   111.12965101     5.13500727
 H      1   2   3     1.089352582959   110.08907795   244.81219293

---------------------------
INTERNAL COORDINATES (A.U.)
---------------------------
 C      0   0   0     0.000000000000     0.00000000     0.00000000
 C      1   0   0     2.828076942663     0.00000000     0.00000000
 C      2   1   0     2.608292440954   121.67618588     0.00000000
 C      3   2   1     2.649217197157   121.89480482   178.54169565
 C      4   3   2     2.658155307819   119.48020416     2.70847700
 C      5   4   3     2.629978061172   118.12535629   358.04367307
 C      6   5   4     2.606430499063   121.49881688     0.00000000
 H      7   6   5     2.041075990013   119.70827496   180.76734292
 H      6   5   4     2.040174843737   118.67814121   180.68910175
 C      5   4   3     2.831465059559   123.38547141   177.75228348
 H     10   5   4     2.060305209765   109.66805646   210.98543136
 H     10   5   4     2.060219731791   111.86072764   333.14092574
 C     10   5   4     2.908086899352   108.11278024    94.04848101
 O     13  10   5     2.263486519576   122.07420077    95.14909080
 O     13  10   5     2.498753683279   115.09055128   276.53246824
 H     15  13  10     1.866988950011   112.04403640   359.95716956
 C      4   3   2     2.750715908083   116.86285104   182.46579334
 O     17   4   3     2.296981549329   126.99395937   159.90256887
 H     17   4   3     2.087194713044   113.58989486   341.12754082
 H      3   2   1     2.043261888463   119.64390405     0.17456814
 H      1   2   3     2.057354145673   110.40941214   125.98788250
 H      1   2   3     2.053496777981   111.12965101     5.13500727
 H      1   2   3     2.058578045073   110.08907795   244.81219293

---------------------
BASIS SET INFORMATION
---------------------
There are 3 groups of distinct atoms

 Group   1 Type C   : 7s4p1d contracted to 3s2p1d pattern {511/31/1}
 Group   2 Type H   : 4s1p contracted to 2s1p pattern {31/1}
 Group   3 Type O   : 7s4p1d contracted to 3s2p1d pattern {511/31/1}

Atom   0C    basis set group =>   1
Atom   1C    basis set group =>   1
Atom   2C    basis set group =>   1
Atom   3C    basis set group =>   1
Atom   4C    basis set group =>   1
Atom   5C    basis set group =>   1
Atom   6C    basis set group =>   1
Atom   7H    basis set group =>   2
Atom   8H    basis set group =>   2
Atom   9C    basis set group =>   1
Atom  10H    basis set group =>   2
Atom  11H    basis set group =>   2
Atom  12C    basis set group =>   1
Atom  13O    basis set group =>   3
Atom  14O    basis set group =>   3
Atom  15H    basis set group =>   2
Atom  16C    basis set group =>   1
Atom  17O    basis set group =>   3
Atom  18H    basis set group =>   2
Atom  19H    basis set group =>   2
Atom  20H    basis set group =>   2
Atom  21H    basis set group =>   2
Atom  22H    basis set group =>   2
------------------------------------------------------------------------------
                           ORCA GTO INTEGRAL CALCULATION
------------------------------------------------------------------------------

                         BASIS SET STATISTICS AND STARTUP INFO

 # of primitive gaussian shells          ...  206
 # of primitive gaussian functions       ...  382
 # of contracted shells                  ...  108
 # of contracted basis functions         ...  232
 Highest angular momentum                ...    2
 Maximum contraction depth               ...    5
 Integral package used                   ... LIBINT
 Integral threshhold            Thresh   ...  2.500e-11
 Primitive cut-off              TCut     ...  2.500e-12


------------------------------ INTEGRAL EVALUATION ----------------------------


 * One electron integrals 
 Pre-screening matrix                    ... done
 Shell pair data                         ... done (   0.002 sec)

-------------------------------------------------------------------------------
                                 ORCA SCF
-------------------------------------------------------------------------------

------------
SCF SETTINGS
------------
Hamiltonian:
 Density Functional     Method          .... DFT(GTOs)
 Exchange Functional    Exchange        .... WB97X-D3
 Correlation Functional Correlation     .... WB97X-D3
 Gradients option       PostSCFGGA      .... off
 Hybrid DFT is turned on
   Fraction HF Exchange ScalHFX         ....  0.195728
   Scaling of DF-GGA-X  ScalDFX         ....  0.000000
   Scaling of DF-GGA-C  ScalDFC         ....  1.000000
   Scaling of DF-LDA-C  ScalLDAC        ....  1.000000
   Perturbative correction              ....  0.000000
   Density functional embedding theory  .... OFF
 Long-range corrected/Screened/Range-Separated Hybrid DFT is turned on
   Amount of maximum screened exact exchange              ....  0.804272
   Range separation parameter mu (erf(mu*r12)/r12)        ....  0.250000


General Settings:
 Integral files         IntName         .... 010261645
 Hartree-Fock type      HFTyp           .... RHF
 Total Charge           Charge          ....    0
 Multiplicity           Mult            ....    1
 Number of Electrons    NEL             ....   94
 Basis Dimension        Dim             ....  232
 Nuclear Repulsion      ENuc            ....    767.2617492894 Eh

Convergence Acceleration:
 DIIS                   CNVDIIS         .... on
   Start iteration      DIISMaxIt       ....    12
   Startup error        DIISStart       ....  0.200000
   # of expansion vecs  DIISMaxEq       ....     5
   Bias factor          DIISBfac        ....   1.050
   Max. coefficient     DIISMaxC        ....  10.000
 Newton-Raphson         CNVNR           .... off
 SOSCF                  CNVSOSCF        .... on
   Start iteration      SOSCFMaxIt      ....   150
   Startup grad/error   SOSCFStart      ....  0.003300
 Level Shifting         CNVShift        .... on
   Level shift para.    LevelShift      ....    0.2500
   Turn off err/grad.   ShiftErr        ....    0.0010
 Zerner damping         CNVZerner       .... off
 Static damping         CNVDamp         .... on
   Fraction old density DampFac         ....    0.7000
   Max. Damping (<1)    DampMax         ....    0.9800
   Min. Damping (>=0)   DampMin         ....    0.0000
   Turn off err/grad.   DampErr         ....    0.1000
 Fernandez-Rico         CNVRico         .... off

SCF Procedure:
 Maximum # iterations   MaxIter         ....   125
 SCF integral mode      SCFMode         .... Direct
   Integral package                     .... LIBINT
 Reset frequency        DirectResetFreq ....    20
 Integral Threshold     Thresh          ....  2.500e-11 Eh
 Primitive CutOff       TCut            ....  2.500e-12 Eh

Convergence Tolerance:
 Convergence Check Mode ConvCheckMode   .... Total+1el-Energy
 Convergence forced     ConvForced      .... 0
 Energy Change          TolE            ....  1.000e-08 Eh
 1-El. energy change                    ....  1.000e-05 Eh
 Orbital Gradient       TolG            ....  1.000e-05
 Orbital Rotation angle TolX            ....  1.000e-05
 DIIS Error             TolErr          ....  5.000e-07


Diagonalization of the overlap matrix:
Smallest eigenvalue                        ... 2.358e-04
Time for diagonalization                   ...    0.008 sec
Threshold for overlap eigenvalues          ... 1.000e-08
Number of eigenvalues below threshold      ... 0
Time for construction of square roots      ...    0.003 sec
Total time needed                          ...    0.012 sec

-------------------
DFT GRID GENERATION
-------------------

General Integration Accuracy     IntAcc      ...  4.340
Radial Grid Type                 RadialGrid  ... Gauss-Chebyshev
Angular Grid (max. acc.)         AngularGrid ... Lebedev-110
Angular grid pruning method      GridPruning ... 3 (G Style)
Weight generation scheme         WeightScheme... Becke
Basis function cutoff            BFCut       ...    1.0000e-11
Integration weight cutoff        WCut        ...    1.0000e-14
Grids for H and He will be reduced by one unit

# of grid points (after initial pruning)     ...  29648 (   0.0 sec)
# of grid points (after weights+screening)   ...  26995 (   0.1 sec)
nearest neighbour list constructed           ...    0.0 sec
Grid point re-assignment to atoms done       ...    0.0 sec
Grid point division into batches done        ...    0.0 sec
Reduced shell lists constructed in    0.2 sec

Total number of grid points                  ...    26995
Total number of batches                      ...      434
Average number of points per batch           ...       62
Average number of grid points per atom       ...     1174
Average number of shells per batch           ...    67.55 (62.55%)
Average number of basis functions per batch  ...   140.44 (60.54%)
Average number of large shells per batch     ...    49.66 (73.52%)
Average number of large basis fcns per batch ...   102.46 (72.96%)
Maximum spatial batch extension              ...  20.55, 20.75, 25.60 au
Average spatial batch extension              ...   3.48,  3.49,  3.82 au

Time for grid setup =    0.319 sec

------------------------------
INITIAL GUESS: MODEL POTENTIAL
------------------------------
Loading Hartree-Fock densities                     ... done
Calculating cut-offs                               ... done
Setting up the integral package                    ... done
Initializing the effective Hamiltonian             ... done
Starting the Coulomb interaction                   ... done (   0.2 sec)
Reading the grid                                   ... done
Mapping shells                                     ... done
Starting the XC term evaluation                    ... done (   0.3 sec)
  promolecular density results
     # of electrons  =     93.991319828
     EX              =    -78.588151928
     EC              =     -3.152592243
     EX+EC           =    -81.740744171
Transforming the Hamiltonian                       ... done (   0.0 sec)
Diagonalizing the Hamiltonian                      ... done (   0.0 sec)
Back transforming the eigenvectors                 ... done (   0.0 sec)
Now organizing SCF variables                       ... done
                      ------------------
                      INITIAL GUESS DONE (   0.9 sec)
                      ------------------
--------------
SCF ITERATIONS
--------------
ITER       Energy         Delta-E        Max-DP      RMS-DP      [F,P]     Damp
               ***  Starting incremental Fock matrix formation  ***
  0   -611.8530877717   0.000000000000 0.07545071  0.00202319  0.2493454 0.7000
  1   -611.9795459848  -0.126458213132 0.04693628  0.00143270  0.1195126 0.7000
                               ***Turning on DIIS***
  2   -612.0393965465  -0.059850561656 0.07763845  0.00279293  0.0502276 0.0000
  3   -612.1402557612  -0.100859214764 0.03573175  0.00087404  0.0586901 0.0000
  4   -612.1542613420  -0.014005580797 0.00835530  0.00021105  0.0099514 0.0000
  5   -612.1548726126  -0.000611270544 0.00274690  0.00007522  0.0037506 0.0000
                      *** Initiating the SOSCF procedure ***
                           *** Shutting down DIIS ***
                      *** Re-Reading the Fockian *** 
                      *** Removing any level shift *** 
ITER      Energy       Delta-E        Grad      Rot      Max-DP    RMS-DP
  6   -612.15493406  -0.0000614489  0.000808  0.000808  0.001639  0.000049
               *** Restarting incremental Fock matrix formation ***
  7   -612.15495106  -0.0000170017  0.000234  0.000455  0.001183  0.000029
  8   -612.15495223  -0.0000011691  0.000560  0.000545  0.000661  0.000011
  9   -612.15495593  -0.0000037011  0.000081  0.000283  0.000216  0.000005
 10   -612.15495606  -0.0000001235  0.000033  0.000082  0.000083  0.000002
 11   -612.15495611  -0.0000000567  0.000016  0.000025  0.000033  0.000001
 12   -612.15495612  -0.0000000059  0.000004  0.000009  0.000013  0.000000
                  ***Gradient check signals convergence***
              ***Rediagonalizing the Fockian in SOSCF/NRSCF***

               *****************************************************
               *                     SUCCESS                       *
               *           SCF CONVERGED AFTER  13 CYCLES          *
               *****************************************************

Setting up the final grid:

General Integration Accuracy     IntAcc      ...  4.670
Radial Grid Type                 RadialGrid  ... Gauss-Chebyshev
Angular Grid (max. acc.)         AngularGrid ... Lebedev-302
Angular grid pruning method      GridPruning ... 3 (G Style)
Weight generation scheme         WeightScheme... Becke
Basis function cutoff            BFCut       ...    1.0000e-11
Integration weight cutoff        WCut        ...    1.0000e-14
Grids for H and He will be reduced by one unit

# of grid points (after initial pruning)     ... 114696 (   0.0 sec)
# of grid points (after weights+screening)   ... 102498 (   0.4 sec)
nearest neighbour list constructed           ...    0.0 sec
Grid point re-assignment to atoms done       ...    0.0 sec
Grid point division into batches done        ...    0.3 sec
Reduced shell lists constructed in    1.0 sec

Total number of grid points                  ...   102498
Total number of batches                      ...     1615
Average number of points per batch           ...       63
Average number of grid points per atom       ...     4456
Average number of shells per batch           ...    61.58 (57.02%)
Average number of basis functions per batch  ...   127.08 (54.77%)
Average number of large shells per batch     ...    44.48 (72.23%)
Average number of large basis fcns per batch ...    90.84 (71.48%)
Maximum spatial batch extension              ...  17.41, 19.06, 18.89 au
Average spatial batch extension              ...   2.28,  2.31,  2.44 au

Final grid set up in    1.4 sec
Final integration                            ... done (   1.6 sec)
Change in XC energy                          ...     0.000293425
Integrated number of electrons               ...    94.000044766
Previous integrated no of electrons          ...    93.996783499

----------------
TOTAL SCF ENERGY
----------------

Total Energy       :         -612.15466269 Eh          -16657.57523 eV

Components:
Nuclear Repulsion  :          767.26174929 Eh           20878.25363 eV
Electronic Energy  :        -1379.41641198 Eh          -37535.82885 eV
One Electron Energy:        -2353.85922998 Eh          -64051.76598 eV
Two Electron Energy:          974.44281799 Eh           26515.93712 eV

Virial components:
Potential Energy   :        -1218.66301732 Eh          -33161.50660 eV
Kinetic Energy     :          606.50835462 Eh           16503.93137 eV
Virial Ratio       :            2.00930953


DFT components:
N(Alpha)           :       47.000022382936 electrons
N(Beta)            :       47.000022382936 electrons
N(Total)           :       94.000044765871 electrons
E(XC)              :      -57.838478235975 Eh       
DFET-embed. en.    :        0.000000000000 Eh       

---------------
SCF CONVERGENCE
---------------

  Last Energy change         ...    9.9885e-10  Tolerance :   1.0000e-08
  Last MAX-Density change    ...    5.2807e-06  Tolerance :   1.0000e-07
  Last RMS-Density change    ...    1.3521e-07  Tolerance :   5.0000e-09
  Last Orbital Gradient      ...    2.1114e-06  Tolerance :   1.0000e-05
  Last Orbital Rotation      ...    8.5287e-06  Tolerance :   1.0000e-05

             **** THE GBW FILE WAS UPDATED (010261645.gbw) ****
             **** DENSITY FILE WAS UPDATED (010261645.scfp) ****
             **** ENERGY FILE WAS UPDATED (010261645.en.tmp) ****
             **** THE GBW FILE WAS UPDATED (010261645.gbw) ****
             **** DENSITY FILE WAS UPDATED (010261645.scfp) ****
----------------
ORBITAL ENERGIES
----------------

  NO   OCC          E(Eh)            E(eV) 
   0   2.0000     -19.276034      -524.5276 
   1   2.0000     -19.262042      -524.1468 
   2   2.0000     -19.207536      -522.6636 
   3   2.0000     -10.411864      -283.3212 
   4   2.0000     -10.407929      -283.2141 
   5   2.0000     -10.334990      -281.2294 
   6   2.0000     -10.323449      -280.9153 
   7   2.0000     -10.322916      -280.9008 
   8   2.0000     -10.322301      -280.8841 
   9   2.0000     -10.318802      -280.7889 
  10   2.0000     -10.312446      -280.6159 
  11   2.0000     -10.307958      -280.4938 
  12   2.0000     -10.303924      -280.3840 
  13   2.0000      -1.197093       -32.5746 
  14   2.0000      -1.185128       -32.2490 
  15   2.0000      -1.106849       -30.1189 
  16   2.0000      -1.011482       -27.5238 
  17   2.0000      -0.934914       -25.4403 
  18   2.0000      -0.906555       -24.6686 
  19   2.0000      -0.865749       -23.5582 
  20   2.0000      -0.801222       -21.8024 
  21   2.0000      -0.780253       -21.2318 
  22   2.0000      -0.740250       -20.1432 
  23   2.0000      -0.710393       -19.3308 
  24   2.0000      -0.681792       -18.5525 
  25   2.0000      -0.638919       -17.3859 
  26   2.0000      -0.620850       -16.8942 
  27   2.0000      -0.613527       -16.6949 
  28   2.0000      -0.595134       -16.1944 
  29   2.0000      -0.578886       -15.7523 
  30   2.0000      -0.556344       -15.1389 
  31   2.0000      -0.550531       -14.9807 
  32   2.0000      -0.547457       -14.8971 
  33   2.0000      -0.545186       -14.8353 
  34   2.0000      -0.533140       -14.5075 
  35   2.0000      -0.513666       -13.9776 
  36   2.0000      -0.505652       -13.7595 
  37   2.0000      -0.493783       -13.4365 
  38   2.0000      -0.485065       -13.1993 
  39   2.0000      -0.475953       -12.9513 
  40   2.0000      -0.460058       -12.5188 
  41   2.0000      -0.446267       -12.1436 
  42   2.0000      -0.397079       -10.8051 
  43   2.0000      -0.389004       -10.5853 
  44   2.0000      -0.371618       -10.1122 
  45   2.0000      -0.369174       -10.0457 
  46   2.0000      -0.337567        -9.1857 
  47   0.0000      -0.017547        -0.4775 
  48   0.0000       0.044717         1.2168 
  49   0.0000       0.091173         2.4809 
  50   0.0000       0.120425         3.2769 
  51   0.0000       0.137202         3.7335 
  52   0.0000       0.154556         4.2057 
  53   0.0000       0.164848         4.4857 
  54   0.0000       0.180024         4.8987 
  55   0.0000       0.187997         5.1157 
  56   0.0000       0.198547         5.4027 
  57   0.0000       0.207614         5.6495 
  58   0.0000       0.230785         6.2800 
  59   0.0000       0.238753         6.4968 
  60   0.0000       0.247212         6.7270 
  61   0.0000       0.250907         6.8275 
  62   0.0000       0.266425         7.2498 
  63   0.0000       0.302741         8.2380 
  64   0.0000       0.323823         8.8117 
  65   0.0000       0.339683         9.2432 
  66   0.0000       0.353758         9.6263 
  67   0.0000       0.370027        10.0689 
  68   0.0000       0.375698        10.2233 
  69   0.0000       0.396519        10.7898 
  70   0.0000       0.405438        11.0325 
  71   0.0000       0.425565        11.5802 
  72   0.0000       0.436139        11.8679 
  73   0.0000       0.459635        12.5073 
  74   0.0000       0.463346        12.6083 
  75   0.0000       0.484512        13.1843 
  76   0.0000       0.498481        13.5643 
  77   0.0000       0.511898        13.9295 
  78   0.0000       0.523852        14.2547 
  79   0.0000       0.526068        14.3150 
  80   0.0000       0.542860        14.7720 
  81   0.0000       0.552295        15.0287 
  82   0.0000       0.565593        15.3906 
  83   0.0000       0.572787        15.5863 
  84   0.0000       0.588836        16.0230 
  85   0.0000       0.616224        16.7683 
  86   0.0000       0.623006        16.9528 
  87   0.0000       0.639806        17.4100 
  88   0.0000       0.646209        17.5842 
  89   0.0000       0.657761        17.8986 
  90   0.0000       0.675137        18.3714 
  91   0.0000       0.682201        18.5636 
  92   0.0000       0.686290        18.6749 
  93   0.0000       0.708443        19.2777 
  94   0.0000       0.721434        19.6312 
  95   0.0000       0.731257        19.8985 
  96   0.0000       0.736534        20.0421 
  97   0.0000       0.747778        20.3481 
  98   0.0000       0.751292        20.4437 
  99   0.0000       0.756508        20.5856 
 100   0.0000       0.766209        20.8496 
 101   0.0000       0.768902        20.9229 
 102   0.0000       0.775531        21.1033 
 103   0.0000       0.788174        21.4473 
 104   0.0000       0.792091        21.5539 
 105   0.0000       0.806347        21.9418 
 106   0.0000       0.817097        22.2343 
 107   0.0000       0.829143        22.5621 
 108   0.0000       0.840065        22.8593 
 109   0.0000       0.856549        23.3079 
 110   0.0000       0.863372        23.4935 
 111   0.0000       0.875216        23.8158 
 112   0.0000       0.924886        25.1674 
 113   0.0000       0.939701        25.5706 
 114   0.0000       0.957684        26.0599 
 115   0.0000       0.972372        26.4596 
 116   0.0000       0.997277        27.1373 
 117   0.0000       1.013399        27.5760 
 118   0.0000       1.052614        28.6431 
 119   0.0000       1.094960        29.7954 
 120   0.0000       1.097921        29.8759 
 121   0.0000       1.125788        30.6343 
 122   0.0000       1.132407        30.8143 
 123   0.0000       1.159432        31.5497 
 124   0.0000       1.192252        32.4428 
 125   0.0000       1.206643        32.8344 
 126   0.0000       1.235905        33.6307 
 127   0.0000       1.239366        33.7249 
 128   0.0000       1.260294        34.2943 
 129   0.0000       1.306302        35.5463 
 130   0.0000       1.315627        35.8000 
 131   0.0000       1.327422        36.1210 
 132   0.0000       1.334849        36.3231 
 133   0.0000       1.352954        36.8158 
 134   0.0000       1.374583        37.4043 
 135   0.0000       1.383991        37.6603 
 136   0.0000       1.404529        38.2192 
 137   0.0000       1.417548        38.5734 
 138   0.0000       1.458157        39.6785 
 139   0.0000       1.502715        40.8910 
 140   0.0000       1.513462        41.1834 
 141   0.0000       1.534376        41.7525 
 142   0.0000       1.566099        42.6157 
 143   0.0000       1.578779        42.9608 
 144   0.0000       1.584703        43.1220 
 145   0.0000       1.601753        43.5859 
 146   0.0000       1.618524        44.0423 
 147   0.0000       1.626158        44.2500 
 148   0.0000       1.682874        45.7933 
 149   0.0000       1.707732        46.4697 
 150   0.0000       1.737024        47.2668 
 151   0.0000       1.779582        48.4249 
 152   0.0000       1.785520        48.5865 
 153   0.0000       1.788032        48.6548 
 154   0.0000       1.794065        48.8190 
 155   0.0000       1.806580        49.1596 
 156   0.0000       1.825687        49.6795 
 157   0.0000       1.830412        49.8081 
 158   0.0000       1.837205        49.9929 
 159   0.0000       1.852227        50.4017 
 160   0.0000       1.867461        50.8162 
 161   0.0000       1.874145        50.9981 
 162   0.0000       1.883287        51.2468 
 163   0.0000       1.897978        51.6466 
 164   0.0000       1.907843        51.9151 
 165   0.0000       1.925257        52.3889 
 166   0.0000       1.937736        52.7285 
 167   0.0000       1.952725        53.1363 
 168   0.0000       1.983426        53.9718 
 169   0.0000       1.999276        54.4031 
 170   0.0000       2.043504        55.6066 
 171   0.0000       2.048938        55.7544 
 172   0.0000       2.068585        56.2891 
 173   0.0000       2.088245        56.8240 
 174   0.0000       2.096165        57.0395 
 175   0.0000       2.103733        57.2455 
 176   0.0000       2.122292        57.7505 
 177   0.0000       2.126914        57.8763 
 178   0.0000       2.148820        58.4724 
 179   0.0000       2.193386        59.6851 
 180   0.0000       2.212045        60.1928 
 181   0.0000       2.217009        60.3279 
 182   0.0000       2.232964        60.7620 
 183   0.0000       2.243831        61.0577 
 184   0.0000       2.305759        62.7429 
 185   0.0000       2.342913        63.7539 
 186   0.0000       2.354531        64.0700 
 187   0.0000       2.380539        64.7778 
 188   0.0000       2.383572        64.8603 
 189   0.0000       2.395672        65.1896 
 190   0.0000       2.413095        65.6637 
 191   0.0000       2.452790        66.7438 
 192   0.0000       2.487344        67.6841 
 193   0.0000       2.497327        67.9557 
 194   0.0000       2.533057        68.9280 
 195   0.0000       2.562545        69.7304 
 196   0.0000       2.585195        70.3467 
 197   0.0000       2.637632        71.7736 
 198   0.0000       2.645524        71.9884 
 199   0.0000       2.665647        72.5359 
 200   0.0000       2.681572        72.9693 
 201   0.0000       2.712174        73.8020 
 202   0.0000       2.735998        74.4503 
 203   0.0000       2.743362        74.6507 
 204   0.0000       2.770211        75.3813 
 205   0.0000       2.784558        75.7717 
 206   0.0000       2.819807        76.7309 
 207   0.0000       2.841889        77.3317 
 208   0.0000       2.849189        77.5304 
 209   0.0000       2.907309        79.1119 
 210   0.0000       2.915255        79.3281 
 211   0.0000       2.935509        79.8793 
 212   0.0000       2.970556        80.8329 
 213   0.0000       2.985267        81.2333 
 214   0.0000       3.029761        82.4440 
 215   0.0000       3.038074        82.6702 
 216   0.0000       3.051973        83.0484 
 217   0.0000       3.084629        83.9370 
 218   0.0000       3.119913        84.8971 
 219   0.0000       3.136685        85.3535 
 220   0.0000       3.186701        86.7145 
 221   0.0000       3.212479        87.4160 
 222   0.0000       3.223191        87.7075 
 223   0.0000       3.326131        90.5086 
 224   0.0000       3.356001        91.3214 
 225   0.0000       3.472279        94.4855 
 226   0.0000       3.492190        95.0273 
 227   0.0000       3.582348        97.4806 
 228   0.0000       3.693717       100.5111 
 229   0.0000       3.711361       100.9913 
 230   0.0000       3.789612       103.1206 
 231   0.0000       3.948016       107.4310 

                    ********************************
                    * MULLIKEN POPULATION ANALYSIS *
                    ********************************

-----------------------
MULLIKEN ATOMIC CHARGES
-----------------------
   0 C :    0.052178
   1 C :   -0.097972
   2 C :   -0.027016
   3 C :   -0.053159
   4 C :   -0.095644
   5 C :   -0.006887
   6 C :    0.003359
   7 H :    0.015127
   8 H :    0.023005
   9 C :    0.032579
  10 H :    0.049608
  11 H :    0.055255
  12 C :    0.155226
  13 O :   -0.224553
  14 O :   -0.196581
  15 H :    0.200676
  16 C :    0.211252
  17 O :   -0.264679
  18 H :    0.029341
  19 H :   -0.003174
  20 H :    0.051685
  21 H :    0.032229
  22 H :    0.058145
Sum of atomic charges:    0.0000000

--------------------------------
MULLIKEN REDUCED ORBITAL CHARGES
--------------------------------
  0 C s       :     2.943218  s :     2.943218
      pz      :     1.025951  p :     2.977117
      px      :     0.936145
      py      :     1.015021
      dz2     :     0.004817  d :     0.027487
      dxz     :     0.006102
      dyz     :     0.005046
      dx2y2   :     0.006991
      dxy     :     0.004532
  1 C s       :     3.045860  s :     3.045860
      pz      :     0.982662  p :     3.007334
      px      :     1.020215
      py      :     1.004457
      dz2     :     0.004009  d :     0.044778
      dxz     :     0.006969
      dyz     :     0.006781
      dx2y2   :     0.013125
      dxy     :     0.013894
  2 C s       :     3.242791  s :     3.242791
      pz      :     0.956037  p :     2.749334
      px      :     0.905512
      py      :     0.887784
      dz2     :     0.002948  d :     0.034891
      dxz     :     0.006115
      dyz     :     0.004345
      dx2y2   :     0.011073
      dxy     :     0.010410
  3 C s       :     3.065789  s :     3.065789
      pz      :     1.064479  p :     2.948209
      px      :     0.901893
      py      :     0.981837
      dz2     :     0.004292  d :     0.039161
      dxz     :     0.005875
      dyz     :     0.004375
      dx2y2   :     0.011809
      dxy     :     0.012810
  4 C s       :     3.071691  s :     3.071691
      pz      :     0.968037  p :     2.979580
      px      :     0.980856
      py      :     1.030687
      dz2     :     0.003898  d :     0.044373
      dxz     :     0.006838
      dyz     :     0.007754
      dx2y2   :     0.012665
      dxy     :     0.013219
  5 C s       :     3.198253  s :     3.198253
      pz      :     0.963394  p :     2.773941
      px      :     0.898310
      py      :     0.912238
      dz2     :     0.003027  d :     0.034693
      dxz     :     0.005666
      dyz     :     0.004201
      dx2y2   :     0.010346
      dxy     :     0.011454
  6 C s       :     3.203504  s :     3.203504
      pz      :     0.943745  p :     2.757621
      px      :     0.914883
      py      :     0.898993
      dz2     :     0.003637  d :     0.035517
      dxz     :     0.005575
      dyz     :     0.004287
      dx2y2   :     0.010054
      dxy     :     0.011963
  7 H s       :     0.961733  s :     0.961733
      pz      :     0.004275  p :     0.023140
      px      :     0.006822
      py      :     0.012043
  8 H s       :     0.953300  s :     0.953300
      pz      :     0.005053  p :     0.023695
      px      :     0.005711
      py      :     0.012930
  9 C s       :     2.993424  s :     2.993424
      pz      :     1.022824  p :     2.942954
      px      :     0.924493
      py      :     0.995637
      dz2     :     0.004513  d :     0.031043
      dxz     :     0.008010
      dyz     :     0.006853
      dx2y2   :     0.007500
      dxy     :     0.004167
 10 H s       :     0.927419  s :     0.927419
      pz      :     0.008490  p :     0.022972
      px      :     0.003869
      py      :     0.010613
 11 H s       :     0.920618  s :     0.920618
      pz      :     0.005776  p :     0.024126
      px      :     0.005076
      py      :     0.013274
 12 C s       :     3.073815  s :     3.073815
      pz      :     0.893311  p :     2.627071
      px      :     0.837505
      py      :     0.896255
      dz2     :     0.020191  d :     0.143889
      dxz     :     0.010577
      dyz     :     0.047454
      dx2y2   :     0.029169
      dxy     :     0.036498
 13 O s       :     3.723002  s :     3.723002
      pz      :     1.641684  p :     4.482361
      px      :     1.475233
      py      :     1.365444
      dz2     :     0.002367  d :     0.019190
      dxz     :     0.000554
      dyz     :     0.004855
      dx2y2   :     0.005730
      dxy     :     0.005684
 14 O s       :     3.662796  s :     3.662796
      pz      :     1.626283  p :     4.519989
      px      :     1.701754
      py      :     1.191952
      dz2     :     0.002311  d :     0.013796
      dxz     :     0.002474
      dyz     :     0.005018
      dx2y2   :     0.001209
      dxy     :     0.002784
 15 H s       :     0.723647  s :     0.723647
      pz      :     0.017480  p :     0.075677
      px      :     0.019652
      py      :     0.038546
 16 C s       :     3.152632  s :     3.152632
      pz      :     0.718726  p :     2.547218
      px      :     0.880571
      py      :     0.947920
      dz2     :     0.004521  d :     0.088899
      dxz     :     0.018419
      dyz     :     0.003845
      dx2y2   :     0.020670
      dxy     :     0.041444
 17 O s       :     3.756469  s :     3.756469
      pz      :     1.354914  p :     4.490835
      px      :     1.318837
      py      :     1.817084
      dz2     :     0.001810  d :     0.017375
      dxz     :     0.005488
      dyz     :     0.000302
      dx2y2   :     0.005565
      dxy     :     0.004210
 18 H s       :     0.950852  s :     0.950852
      pz      :     0.002155  p :     0.019807
      px      :     0.006361
      py      :     0.011290
 19 H s       :     0.979395  s :     0.979395
      pz      :     0.005377  p :     0.023779
      px      :     0.005623
      py      :     0.012779
 20 H s       :     0.924004  s :     0.924004
      pz      :     0.009820  p :     0.024311
      px      :     0.007557
      py      :     0.006934
 21 H s       :     0.943883  s :     0.943883
      pz      :     0.005197  p :     0.023888
      px      :     0.005187
      py      :     0.013504
 22 H s       :     0.917574  s :     0.917574
      pz      :     0.012190  p :     0.024281
      px      :     0.004537
      py      :     0.007555


                     *******************************
                     * LOEWDIN POPULATION ANALYSIS *
                     *******************************

----------------------
LOEWDIN ATOMIC CHARGES
----------------------
   0 C :   -0.047849
   1 C :   -0.032635
   2 C :   -0.001165
   3 C :   -0.100505
   4 C :    0.008932
   5 C :   -0.011312
   6 C :    0.007631
   7 H :    0.036070
   8 H :    0.039546
   9 C :   -0.064325
  10 H :    0.046383
  11 H :    0.036759
  12 C :    0.079227
  13 O :   -0.181721
  14 O :   -0.039334
  15 H :    0.064628
  16 C :    0.148762
  17 O :   -0.145933
  18 H :    0.012370
  19 H :    0.029502
  20 H :    0.039932
  21 H :    0.032104
  22 H :    0.042935

-------------------------------
LOEWDIN REDUCED ORBITAL CHARGES
-------------------------------
  0 C s       :     2.820907  s :     2.820907
      pz      :     1.070492  p :     3.153906
      px      :     1.015257
      py      :     1.068156
      dz2     :     0.012674  d :     0.073036
      dxz     :     0.015749
      dyz     :     0.013125
      dx2y2   :     0.019753
      dxy     :     0.011735
  1 C s       :     2.844457  s :     2.844457
      pz      :     0.957275  p :     3.077516
      px      :     1.038706
      py      :     1.081535
      dz2     :     0.008810  d :     0.110662
      dxz     :     0.013371
      dyz     :     0.014996
      dx2y2   :     0.036202
      dxy     :     0.037282
  2 C s       :     2.850772  s :     2.850772
      pz      :     0.965263  p :     3.057252
      px      :     1.041777
      py      :     1.050212
      dz2     :     0.006810  d :     0.093142
      dxz     :     0.013747
      dyz     :     0.009242
      dx2y2   :     0.032344
      dxy     :     0.030999
  3 C s       :     2.850879  s :     2.850879
      pz      :     1.031901  p :     3.143366
      px      :     1.057307
      py      :     1.054158
      dz2     :     0.010134  d :     0.106260
      dxz     :     0.013429
      dyz     :     0.010095
      dx2y2   :     0.035676
      dxy     :     0.036926
  4 C s       :     2.846780  s :     2.846780
      pz      :     0.938353  p :     3.033833
      px      :     1.025408
      py      :     1.070072
      dz2     :     0.008860  d :     0.110456
      dxz     :     0.013835
      dyz     :     0.016533
      dx2y2   :     0.035252
      dxy     :     0.035974
  5 C s       :     2.849286  s :     2.849286
      pz      :     0.972607  p :     3.069616
      px      :     1.052567
      py      :     1.044441
      dz2     :     0.006937  d :     0.092410
      dxz     :     0.012888
      dyz     :     0.009072
      dx2y2   :     0.030161
      dxy     :     0.033352
  6 C s       :     2.853320  s :     2.853320
      pz      :     0.944238  p :     3.045954
      px      :     1.054725
      py      :     1.046990
      dz2     :     0.008029  d :     0.093096
      dxz     :     0.012792
      dyz     :     0.009269
      dx2y2   :     0.028962
      dxy     :     0.034044
  7 H s       :     0.895034  s :     0.895034
      pz      :     0.013422  p :     0.068896
      px      :     0.020486
      py      :     0.034988
  8 H s       :     0.890630  s :     0.890630
      pz      :     0.015790  p :     0.069824
      px      :     0.017533
      py      :     0.036500
  9 C s       :     2.838554  s :     2.838554
      pz      :     1.048162  p :     3.141926
      px      :     1.018133
      py      :     1.075631
      dz2     :     0.010855  d :     0.083845
      dxz     :     0.021458
      dyz     :     0.019976
      dx2y2   :     0.021102
      dxy     :     0.010455
 10 H s       :     0.885239  s :     0.885239
      pz      :     0.025649  p :     0.068379
      px      :     0.012729
      py      :     0.030001
 11 H s       :     0.890700  s :     0.890700
      pz      :     0.018720  p :     0.072542
      px      :     0.016616
      py      :     0.037206
 12 C s       :     2.849424  s :     2.849424
      pz      :     0.927646  p :     2.761112
      px      :     0.849066
      py      :     0.984401
      dz2     :     0.043390  d :     0.310236
      dxz     :     0.022490
      dyz     :     0.104574
      dx2y2   :     0.065752
      dxy     :     0.074030
 13 O s       :     3.536116  s :     3.536116
      pz      :     1.643033  p :     4.613356
      px      :     1.479887
      py      :     1.490437
      dz2     :     0.004299  d :     0.032249
      dxz     :     0.000838
      dyz     :     0.007631
      dx2y2   :     0.011088
      dxy     :     0.008393
 14 O s       :     3.410887  s :     3.410887
      pz      :     1.649700  p :     4.601609
      px      :     1.683491
      py      :     1.268418
      dz2     :     0.003116  d :     0.026837
      dxz     :     0.003228
      dyz     :     0.010820
      dx2y2   :     0.003733
      dxy     :     0.005940
 15 H s       :     0.729526  s :     0.729526
      pz      :     0.050654  p :     0.205846
      px      :     0.056434
      py      :     0.098758
 16 C s       :     2.877373  s :     2.877373
      pz      :     0.719523  p :     2.767159
      px      :     1.000055
      py      :     1.047581
      dz2     :     0.011368  d :     0.206706
      dxz     :     0.033183
      dyz     :     0.007412
      dx2y2   :     0.051972
      dxy     :     0.102770
 17 O s       :     3.530265  s :     3.530265
      pz      :     1.341888  p :     4.585925
      px      :     1.455052
      py      :     1.788985
      dz2     :     0.003942  d :     0.029743
      dxz     :     0.006472
      dyz     :     0.000355
      dx2y2   :     0.011444
      dxy     :     0.007529
 18 H s       :     0.923192  s :     0.923192
      pz      :     0.007427  p :     0.064439
      px      :     0.022315
      py      :     0.034696
 19 H s       :     0.900367  s :     0.900367
      pz      :     0.016520  p :     0.070130
      px      :     0.017430
      py      :     0.036181
 20 H s       :     0.892898  s :     0.892898
      pz      :     0.026691  p :     0.067170
      px      :     0.022067
      py      :     0.018412
 21 H s       :     0.901274  s :     0.901274
      pz      :     0.013864  p :     0.066623
      px      :     0.015504
      py      :     0.037256
 22 H s       :     0.889808  s :     0.889808
      pz      :     0.033582  p :     0.067258
      px      :     0.013484
      py      :     0.020191


                      *****************************
                      * MAYER POPULATION ANALYSIS *
                      *****************************

  NA   - Mulliken gross atomic population
  ZA   - Total nuclear charge
  QA   - Mulliken gross atomic charge
  VA   - Mayer's total valence
  BVA  - Mayer's bonded valence
  FA   - Mayer's free valence

  ATOM       NA         ZA         QA         VA         BVA        FA
  0 C      5.9478     6.0000     0.0522     3.9008     3.9008     0.0000
  1 C      6.0980     6.0000    -0.0980     3.9529     3.9529     0.0000
  2 C      6.0270     6.0000    -0.0270     3.8942     3.8942    -0.0000
  3 C      6.0532     6.0000    -0.0532     3.7249     3.7249     0.0000
  4 C      6.0956     6.0000    -0.0956     4.0070     4.0070     0.0000
  5 C      6.0069     6.0000    -0.0069     3.8916     3.8916    -0.0000
  6 C      5.9966     6.0000     0.0034     3.8756     3.8756    -0.0000
  7 H      0.9849     1.0000     0.0151     0.9931     0.9931    -0.0000
  8 H      0.9770     1.0000     0.0230     1.0008     1.0008    -0.0000
  9 C      5.9674     6.0000     0.0326     3.8246     3.8246     0.0000
 10 H      0.9504     1.0000     0.0496     1.0032     1.0032    -0.0000
 11 H      0.9447     1.0000     0.0553     1.0059     1.0059     0.0000
 12 C      5.8448     6.0000     0.1552     4.4101     4.4101    -0.0000
 13 O      8.2246     8.0000    -0.2246     2.2587     2.2587     0.0000
 14 O      8.1966     8.0000    -0.1966     2.2404     2.2404     0.0000
 15 H      0.7993     1.0000     0.2007     1.0646     1.0646     0.0000
 16 C      5.7887     6.0000     0.2113     4.0132     4.0132    -0.0000
 17 O      8.2647     8.0000    -0.2647     2.2187     2.2187    -0.0000
 18 H      0.9707     1.0000     0.0293     0.9888     0.9888    -0.0000
 19 H      1.0032     1.0000    -0.0032     1.0019     1.0019     0.0000
 20 H      0.9483     1.0000     0.0517     0.9921     0.9921     0.0000
 21 H      0.9678     1.0000     0.0322     1.0004     1.0004     0.0000
 22 H      0.9419     1.0000     0.0581     0.9912     0.9912    -0.0000

  Mayer bond orders larger than 0.100000
B(  0-C ,  1-C ) :   1.0343 B(  0-C , 20-H ) :   0.9620 B(  0-C , 21-H ) :   0.9682 
B(  0-C , 22-H ) :   0.9594 B(  1-C ,  2-C ) :   1.4311 B(  1-C ,  6-C ) :   1.3623 
B(  2-C ,  3-C ) :   1.3129 B(  2-C , 19-H ) :   0.9908 B(  3-C ,  4-C ) :   1.3656 
B(  3-C , 16-C ) :   1.0081 B(  4-C ,  5-C ) :   1.3947 B(  4-C ,  9-C ) :   1.0604 
B(  5-C ,  6-C ) :   1.4045 B(  5-C ,  8-H ) :   0.9918 B(  6-C ,  7-H ) :   0.9990 
B(  9-C , 10-H ) :   0.9243 B(  9-C , 11-H ) :   0.9266 B(  9-C , 12-C ) :   0.9488 
B( 12-C , 13-O ) :   2.1317 B( 12-C , 14-O ) :   1.2509 B( 14-O , 15-H ) :   0.8951 
B( 15-H , 17-O ) :   0.1217 B( 16-C , 17-O ) :   1.9627 B( 16-C , 18-H ) :   0.9676 


-------
TIMINGS
-------

Total SCF time: 0 days 0 hours 3 min 3 sec 

Total time                  ....     183.452 sec
Sum of individual times     ....     183.236 sec  ( 99.9%)

Fock matrix formation       ....     180.770 sec  ( 98.5%)
  XC integration            ....       7.401 sec  (  4.1% of F)
    Basis function eval.    ....       2.174 sec  ( 29.4% of XC)
    Density eval.           ....       1.377 sec  ( 18.6% of XC)
    XC-Functional eval.     ....       1.756 sec  ( 23.7% of XC)
    XC-Potential eval.      ....       1.894 sec  ( 25.6% of XC)
Diagonalization             ....       0.046 sec  (  0.0%)
Density matrix formation    ....       0.013 sec  (  0.0%)
Population analysis         ....       0.006 sec  (  0.0%)
Initial guess               ....       0.623 sec  (  0.3%)
Orbital Transformation      ....       0.000 sec  (  0.0%)
Orbital Orthonormalization  ....       0.000 sec  (  0.0%)
DIIS solution               ....       0.018 sec  (  0.0%)
SOSCF solution              ....       0.030 sec  (  0.0%)
Grid generation             ....       1.731 sec  (  0.9%)


-------------------------------------------------------------------------------
                          DFT DISPERSION CORRECTION                            
                                                                               
                              DFTD3 V3.1  Rev 1                                
                              USING zero damping                               
-------------------------------------------------------------------------------
The omegaB97X-D3 functional is recognized. Fit by Chai et al.
Active option DFTDOPT                   ...         3   

molecular C6(AA) [au] = 5830.891463 


            DFT-D V3
 parameters
 s6 scaling factor         :     1.0000 
 rs6 scaling factor        :     1.2810 
 s8 scaling factor         :     1.0000 
 rs8 scaling factor        :     1.0940 
 Damping factor alpha6     :    14.0000 
 Damping factor alpha8     :    16.0000 
 ad hoc parameters k1-k3   :    16.0000     1.3333    -4.0000 

 Edisp/kcal,au: -5.592280069287  -0.008911864607 
 E6   /kcal   :  -2.362787913 
 E8   /kcal   :  -3.229492156 
 % E8         :  57.749113349 

-------------------------   ----------------
Dispersion correction           -0.008911865
-------------------------   ----------------


-------------------------   --------------------
FINAL SINGLE POINT ENERGY      -612.163574558181
-------------------------   --------------------

------------------------------------------------------------------------------
                         ORCA SCF GRADIENT CALCULATION
------------------------------------------------------------------------------

Gradient of the Kohn-Sham DFT energy:
Kohn-Sham wavefunction type      ... RKS
Hartree-Fock exchange scaling    ...    0.196
Number of operators              ...    1
Number of atoms                  ...   23
Basis set dimensions             ...  232
Integral neglect threshold       ... 2.5e-11
Integral primitive cutoff        ... 2.5e-12

Nuclear repulsion gradient       ... done
One Electron Gradient            ... done
Pre-screening matrix             ... done
Starting the two electron gradient:
Two electron gradient done
Exchange-correlation gradient    ... done
Dispersion correction            ... done

------------------
CARTESIAN GRADIENT
------------------

   1   C   :   -0.004587236    0.000673212    0.000939276
   2   C   :    0.005314277    0.001888703   -0.000920566
   3   C   :   -0.007706815    0.000163259    0.001576687
   4   C   :    0.003564549    0.011553764    0.001265928
   5   C   :    0.000606344   -0.005185434    0.003304397
   6   C   :   -0.000703572   -0.001704035   -0.000985784
   7   C   :   -0.001118978   -0.005205250   -0.000482109
   8   H   :    0.004976994    0.008512490    0.000037124
   9   H   :   -0.004124889    0.008272562    0.002643808
  10   C   :   -0.005232742    0.002249240   -0.009576108
  11   H   :   -0.001461882    0.003237559    0.002479266
  12   H   :   -0.001234139   -0.003386854    0.003454792
  13   C   :    0.000195995   -0.001159735    0.009169771
  14   O   :   -0.000885934    0.002581416   -0.001980536
  15   O   :   -0.000838281   -0.008174869   -0.003879643
  16   H   :   -0.001031062    0.008806837    0.000338682
  17   C   :   -0.004852371   -0.005387117   -0.001429101
  18   O   :   -0.000635734   -0.001275912   -0.000207586
  19   H   :    0.002491425   -0.007097321   -0.000147930
  20   H   :    0.004667242   -0.008508251   -0.002011142
  21   H   :    0.005878783    0.002784845    0.004713679
  22   H   :    0.004105407   -0.006897015   -0.001499302
  23   H   :    0.002612616    0.003257908   -0.006803602

Difference to translation invariance:
           :   -0.0000000000    0.0000000000   -0.0000000000

Norm of the cartesian gradient     ...    0.0368507034
RMS gradient                       ...    0.0044363034
MAX gradient                       ...    0.0115537644

-------
TIMINGS
-------

Total SCF gradient time            ...       66.304 sec

One electron gradient       ....       0.236 sec  (  0.4%)
Prescreening matrices       ....       0.125 sec  (  0.2%)
Two electron gradient       ....      59.458 sec  ( 89.7%)
XC gradient                 ....       6.336 sec  (  9.6%)
------------------------------------------------------------------------------
                         ORCA GEOMETRY RELAXATION STEP
------------------------------------------------------------------------------

Reading the OPT-File                    .... done
Getting information on internals        .... done
Copying old internal coords+grads       .... done
Making the new internal coordinates     .... (new redundants).... done
Validating the new internal coordinates .... (new redundants).... done
Calculating the B-matrix                .... done
Calculating the G,G- and P matrices     .... done
Transforming gradient to internals      .... done
Projecting the internal gradient        .... done
Number of atoms                         ....  23
Number of internal coordinates          .... 108
Current Energy                          ....  -612.163574558 Eh
Current gradient norm                   ....     0.036850703 Eh/bohr
Maximum allowed component of the step   ....  0.300
Current trust radius                    ....  0.300
Evaluating the initial hessian          ....  (Almloef) done
Projecting the Hessian                  .... done
Forming the augmented Hessian           .... done
Diagonalizing the augmented Hessian     .... done
Last element of RFO vector              ....  0.993790385
Lowest eigenvalues of augmented Hessian:
 -0.003990975  0.009824062  0.013024779  0.013189926  0.016413712
Length of the computed step             ....  0.111963716
The final length of the internal step   ....  0.111963716
Converting the step to cartesian space:
 Initial RMS(Int)=    0.0107737136
Transforming coordinates:
 Iter   0:  RMS(Cart)=    0.0399049234 RMS(Int)=    0.8545226905
 Iter   1:  RMS(Cart)=    0.0002733413 RMS(Int)=    0.0001336193
 Iter   2:  RMS(Cart)=    0.0000067768 RMS(Int)=    0.0000027374
 Iter   3:  RMS(Cart)=    0.0000001651 RMS(Int)=    0.0000000697
 Iter   4:  RMS(Cart)=    0.0000000041 RMS(Int)=    0.0000000021
done
Storing new coordinates                 .... done

                                .--------------------.
          ----------------------|Geometry convergence|-------------------------
          Item                value                   Tolerance       Converged
          ---------------------------------------------------------------------
          RMS gradient        0.0039360140            0.0001000000      NO
          MAX gradient        0.0135194927            0.0003000000      NO
          RMS step            0.0107737136            0.0020000000      NO
          MAX step            0.0273144351            0.0040000000      NO
          ........................................................
          Max(Bonds)      0.0145      Max(Angles)    1.42
          Max(Dihed)        1.19      Max(Improp)    0.00
          ---------------------------------------------------------------------

The optimization has not yet converged - more geometry cycles are needed


    ---------------------------------------------------------------------------
                         Redundant Internal Coordinates
                            (Angstroem and degrees)

        Definition                    Value    dE/dq     Step     New-Value
    ----------------------------------------------------------------------------
     1. B(C   1,C   0)                1.4966 -0.008427  0.0105    1.5070   
     2. B(C   2,C   1)                1.3802 -0.009273  0.0075    1.3878   
     3. B(C   3,C   2)                1.4019 -0.005034  0.0043    1.4062   
     4. B(C   4,C   3)                1.4066 -0.006842  0.0060    1.4127   
     5. B(C   5,C   4)                1.3917 -0.007320  0.0062    1.3979   
     6. B(C   6,C   5)                1.3793 -0.009812  0.0080    1.3873   
     7. B(C   6,C   1)                1.3954 -0.006626  0.0058    1.4012   
     8. B(H   7,C   6)                1.0801 -0.009853  0.0138    1.0939   
     9. B(H   8,C   5)                1.0796 -0.009616  0.0135    1.0931   
    10. B(C   9,C   4)                1.4983 -0.010294  0.0129    1.5112   
    11. B(H  10,C   9)                1.0903 -0.004176  0.0061    1.0963   
    12. B(H  11,C   9)                1.0902 -0.004704  0.0068    1.0971   
    13. B(C  12,C   9)                1.5389  0.001011 -0.0015    1.5374   
    14. B(O  13,C  12)                1.1978 -0.003076  0.0014    1.1992   
    15. B(O  14,C  12)                1.3223 -0.002054  0.0015    1.3238   
    16. B(H  15,O  14)                0.9880  0.007854 -0.0088    0.9792   
    17. B(C  16,C   3)                1.4556 -0.013519  0.0145    1.4701   
    18. B(O  17,C  16)                1.2155 -0.000805  0.0004    1.2159   
    19. B(H  18,C  16)                1.1045 -0.007160  0.0110    1.1155   
    20. B(H  19,C   2)                1.0812 -0.009881  0.0139    1.0952   
    21. B(H  20,C   0)                1.0887 -0.007854  0.0114    1.1001   
    22. B(H  21,C   0)                1.0867 -0.007974  0.0115    1.0981   
    23. B(H  22,C   0)                1.0894 -0.007777  0.0113    1.1006   
    24. A(C   1,C   0,H  20)          110.41 -0.001677    0.32    110.72   
    25. A(H  20,C   0,H  22)          107.73  0.001480   -0.21    107.53   
    26. A(H  20,C   0,H  21)          108.82  0.001885   -0.38    108.44   
    27. A(C   1,C   0,H  22)          110.09 -0.001922    0.36    110.45   
    28. A(H  21,C   0,H  22)          108.57  0.001915   -0.37    108.20   
    29. A(C   1,C   0,H  21)          111.13 -0.001491    0.25    111.38   
    30. A(C   0,C   1,C   6)          120.34 -0.002267    0.30    120.64   
    31. A(C   2,C   1,C   6)          117.98  0.003825   -0.50    117.48   
    32. A(C   0,C   1,C   2)          121.68 -0.001558    0.20    121.88   
    33. A(C   1,C   2,H  19)          119.64  0.001450   -0.20    119.45   
    34. A(C   1,C   2,C   3)          121.89 -0.001911    0.25    122.14   
    35. A(C   3,C   2,H  19)          118.44  0.000457   -0.04    118.40   
    36. A(C   4,C   3,C  16)          123.66 -0.003821    0.54    124.20   
    37. A(C   2,C   3,C   4)          119.48 -0.002393    0.29    119.77   
    38. A(C   2,C   3,C  16)          116.86  0.006213   -0.83    116.03   
    39. A(C   5,C   4,C   9)          118.49  0.002525   -0.36    118.13   
    40. A(C   3,C   4,C   9)          123.39 -0.005659    0.80    124.18   
    41. A(C   3,C   4,C   5)          118.13  0.003134   -0.44    117.69   
    42. A(C   4,C   5,C   6)          121.50 -0.000980    0.15    121.65   
    43. A(C   6,C   5,H   8)          119.82  0.000343   -0.05    119.77   
    44. A(C   4,C   5,H   8)          118.68  0.000635   -0.10    118.58   
    45. A(C   5,C   6,H   7)          119.71  0.001226   -0.19    119.52   
    46. A(C   1,C   6,H   7)          119.33  0.000450   -0.07    119.26   
    47. A(C   1,C   6,C   5)          120.96 -0.001676    0.25    121.22   
    48. A(C   4,C   9,H  10)          109.67  0.001204   -0.24    109.42   
    49. A(H  11,C   9,C  12)          109.71  0.000855    0.17    109.89   
    50. A(H  10,C   9,C  12)          107.51  0.003396   -0.72    106.79   
    51. A(C   4,C   9,C  12)          108.11 -0.007410    1.42    109.53   
    52. A(H  10,C   9,H  11)          109.87 -0.000209   -0.51    109.35   
    53. A(C   4,C   9,H  11)          111.86  0.002130   -0.12    111.74   
    54. A(O  13,C  12,O  14)          122.82  0.001265   -0.16    122.66   
    55. A(C   9,C  12,O  14)          115.09  0.000275   -0.06    115.04   
    56. A(C   9,C  12,O  13)          122.07 -0.001529    0.18    122.26   
    57. A(C  12,O  14,H  15)          112.04  0.007639   -1.16    110.88   
    58. A(O  17,C  16,H  18)          119.41  0.002525   -0.39    119.01   
    59. A(C   3,C  16,H  18)          113.59 -0.002320    0.37    113.96   
    60. A(C   3,C  16,O  17)          126.99 -0.000200    0.01    127.00   
    61. D(C   6,C   1,C   0,H  22)     64.75 -0.000175    0.06     64.81   
    62. D(C   2,C   1,C   0,H  20)    125.99  0.000190   -0.01    125.97   
    63. D(C   2,C   1,C   0,H  21)      5.14 -0.000069    0.09      5.22   
    64. D(C   6,C   1,C   0,H  20)    -54.08  0.000244   -0.11    -54.18   
    65. D(C   2,C   1,C   0,H  22)   -115.19 -0.000229    0.15   -115.03   
    66. D(C   6,C   1,C   0,H  21)   -174.93 -0.000015   -0.00   -174.93   
    67. D(C   3,C   2,C   1,C   0)    178.54  0.000006   -0.06    178.48   
    68. D(H  19,C   2,C   1,C   6)   -179.76  0.000148   -0.32   -180.08   
    69. D(C   3,C   2,C   1,C   6)     -1.39 -0.000043    0.03     -1.36   
    70. D(H  19,C   2,C   1,C   0)      0.17  0.000197   -0.40     -0.23   
    71. D(C  16,C   3,C   2,C   1)   -177.53 -0.000228    0.40   -177.13   
    72. D(C   4,C   3,C   2,H  19)   -178.91 -0.000260    0.42   -178.48   
    73. D(C  16,C   3,C   2,H  19)      0.85 -0.000401    0.74      1.59   
    74. D(C   4,C   3,C   2,C   1)      2.71 -0.000088    0.09      2.79   
    75. D(C   5,C   4,C   3,C   2)     -1.96  0.000099   -0.23     -2.19   
    76. D(C   9,C   4,C   3,C  16)     -1.99  0.000187   -0.44     -2.42   
    77. D(C   5,C   4,C   3,C  16)    178.30  0.000224   -0.57    177.73   
    78. D(C   9,C   4,C   3,C   2)    177.75  0.000062   -0.10    177.65   
    79. D(H   8,C   5,C   4,C   9)      0.97  0.000123   -0.22      0.74   
    80. D(C   6,C   5,C   4,C   9)   -179.72 -0.000102    0.17   -179.55   
    81. D(C   6,C   5,C   4,C   3)      0.00 -0.000162    0.30      0.30   
    82. D(H   8,C   5,C   4,C   3)   -179.31  0.000064   -0.09   -179.40   
    83. D(H   7,C   6,C   5,H   8)      0.07 -0.000032    0.05      0.12   
    84. D(H   7,C   6,C   5,C   4)   -179.23  0.000194   -0.35   -179.58   
    85. D(C   1,C   6,C   5,H   8)   -179.37 -0.000093    0.19   -179.18   
    86. D(C   1,C   6,C   5,C   4)      1.32  0.000133   -0.20      1.12   
    87. D(H   7,C   6,C   1,C   2)    179.93 -0.000096    0.18    180.11   
    88. D(H   7,C   6,C   1,C   0)     -0.01 -0.000145    0.26      0.26   
    89. D(C   5,C   6,C   1,C   2)     -0.62 -0.000031    0.03     -0.59   
    90. D(C   5,C   6,C   1,C   0)    179.44 -0.000080    0.12    179.56   
    91. D(H  10,C   9,C   4,C   3)   -149.01 -0.000566    0.46   -148.55   
[...]

--------------------------------
MULLIKEN REDUCED ORBITAL CHARGES
--------------------------------
  0 C s       :     2.966416  s :     2.966416
      pz      :     1.027263  p :     2.976030
      px      :     0.931854
      py      :     1.016914
      dz2     :     0.004871  d :     0.026731
      dxz     :     0.005943
      dyz     :     0.004621
      dx2y2   :     0.006790
      dxy     :     0.004506
  1 C s       :     3.050439  s :     3.050439
      pz      :     0.979978  p :     3.000803
      px      :     1.015816
      py      :     1.005010
      dz2     :     0.003885  d :     0.043684
      dxz     :     0.006801
      dyz     :     0.006509
      dx2y2   :     0.012754
      dxy     :     0.013735
  2 C s       :     3.243304  s :     3.243304
      pz      :     0.958163  p :     2.756832
      px      :     0.904369
      py      :     0.894301
      dz2     :     0.002917  d :     0.034165
      dxz     :     0.006069
      dyz     :     0.004088
      dx2y2   :     0.010843
      dxy     :     0.010248
  3 C s       :     3.070399  s :     3.070399
      pz      :     1.059023  p :     2.950869
      px      :     0.904634
      py      :     0.987212
      dz2     :     0.004176  d :     0.038551
      dxz     :     0.005874
      dyz     :     0.004303
      dx2y2   :     0.011656
      dxy     :     0.012542
  4 C s       :     3.073467  s :     3.073467
      pz      :     0.966079  p :     2.970136
      px      :     0.979806
      py      :     1.024251
      dz2     :     0.003757  d :     0.043197
      dxz     :     0.006501
      dyz     :     0.007563
      dx2y2   :     0.012263
      dxy     :     0.013113
  5 C s       :     3.202282  s :     3.202282
      pz      :     0.965494  p :     2.781952
      px      :     0.900264
      py      :     0.916193
      dz2     :     0.002949  d :     0.033954
      dxz     :     0.005561
      dyz     :     0.004086
      dx2y2   :     0.010230
      dxy     :     0.011127
  6 C s       :     3.205433  s :     3.205433
      pz      :     0.946327  p :     2.765616
      px      :     0.915055
      py      :     0.904233
      dz2     :     0.003495  d :     0.034629
      dxz     :     0.005460
      dyz     :     0.004161
      dx2y2   :     0.009927
      dxy     :     0.011587
  7 H s       :     0.953876  s :     0.953876
      pz      :     0.004119  p :     0.022497
      px      :     0.006538
      py      :     0.011840
  8 H s       :     0.945063  s :     0.945063
      pz      :     0.004854  p :     0.023044
      px      :     0.005442
      py      :     0.012748
  9 C s       :     3.001362  s :     3.001362
      pz      :     1.028016  p :     2.952602
      px      :     0.920993
      py      :     1.003594
      dz2     :     0.003965  d :     0.030653
      dxz     :     0.008156
      dyz     :     0.006975
      dx2y2   :     0.007593
      dxy     :     0.003964
 10 H s       :     0.924964  s :     0.924964
      pz      :     0.008280  p :     0.022721
      px      :     0.003714
      py      :     0.010727
 11 H s       :     0.915395  s :     0.915395
      pz      :     0.006147  p :     0.023473
      px      :     0.004751
      py      :     0.012575
 12 C s       :     3.073668  s :     3.073668
      pz      :     0.885830  p :     2.624351
      px      :     0.846327
      py      :     0.892195
      dz2     :     0.018853  d :     0.142794
      dxz     :     0.011267
      dyz     :     0.046325
      dx2y2   :     0.030590
      dxy     :     0.035758
 13 O s       :     3.724449  s :     3.724449
      pz      :     1.629222  p :     4.480492
      px      :     1.480608
      py      :     1.370663
      dz2     :     0.002338  d :     0.019139
      dxz     :     0.000620
      dyz     :     0.004753
      dx2y2   :     0.005694
      dxy     :     0.005734
 14 O s       :     3.664389  s :     3.664389
      pz      :     1.622414  p :     4.512312
      px      :     1.692000
      py      :     1.197898
      dz2     :     0.002353  d :     0.014062
      dxz     :     0.002540
      dyz     :     0.004991
      dx2y2   :     0.001118
      dxy     :     0.003059
 15 H s       :     0.732425  s :     0.732425
      pz      :     0.017870  p :     0.076446
      px      :     0.021183
      py      :     0.037393
 16 C s       :     3.161379  s :     3.161379
      pz      :     0.718056  p :     2.540086
      px      :     0.881591
      py      :     0.940438
      dz2     :     0.004541  d :     0.088079
      dxz     :     0.018427
      dyz     :     0.003584
      dx2y2   :     0.020574
      dxy     :     0.040953
 17 O s       :     3.756576  s :     3.756576
      pz      :     1.351205  p :     4.484698
      px      :     1.319037
      py      :     1.814456
      dz2     :     0.001813  d :     0.017450
      dxz     :     0.005558
      dyz     :     0.000270
      dx2y2   :     0.005599
      dxy     :     0.004210
 18 H s       :     0.946155  s :     0.946155
      pz      :     0.002061  p :     0.019321
      px      :     0.006115
      py      :     0.011144
 19 H s       :     0.970355  s :     0.970355
      pz      :     0.005088  p :     0.023122
      px      :     0.005426
      py      :     0.012608
 20 H s       :     0.920448  s :     0.920448
      pz      :     0.009479  p :     0.023668
      px      :     0.007334
      py      :     0.006855
 21 H s       :     0.939362  s :     0.939362
      pz      :     0.005012  p :     0.023234
      px      :     0.005005
      py      :     0.013217
 22 H s       :     0.913403  s :     0.913403
      pz      :     0.012135  p :     0.023600
      px      :     0.004305
      py      :     0.007160


                     *******************************
                     * LOEWDIN POPULATION ANALYSIS *
                     *******************************

----------------------
LOEWDIN ATOMIC CHARGES
----------------------
   0 C :   -0.053449
   1 C :   -0.032600
   2 C :   -0.004261
   3 C :   -0.099318
   4 C :    0.005979
   5 C :   -0.014053
   6 C :    0.002660
   7 H :    0.038694
   8 H :    0.042367
   9 C :   -0.067824
  10 H :    0.048647
  11 H :    0.040643
  12 C :    0.080178
  13 O :   -0.180270
  14 O :   -0.036398
  15 H :    0.058000
  16 C :    0.148349
  17 O :   -0.144068
  18 H :    0.013793
  19 H :    0.032331
  20 H :    0.041578
  21 H :    0.034266
  22 H :    0.044755

-------------------------------
LOEWDIN REDUCED ORBITAL CHARGES
-------------------------------
  0 C s       :     2.831305  s :     2.831305
      pz      :     1.070546  p :     3.151541
      px      :     1.012169
      py      :     1.068826
      dz2     :     0.012766  d :     0.070604
      dxz     :     0.015216
      dyz     :     0.011920
      dx2y2   :     0.019055
      dxy     :     0.011646
  1 C s       :     2.850683  s :     2.850683
      pz      :     0.956274  p :     3.074306
      px      :     1.037927
      py      :     1.080105
      dz2     :     0.008508  d :     0.107610
      dxz     :     0.012906
      dyz     :     0.014283
      dx2y2   :     0.035011
      dxy     :     0.036903
  2 C s       :     2.857897  s :     2.857897
      pz      :     0.964903  p :     3.055605
      px      :     1.043066
      py      :     1.047636
      dz2     :     0.006631  d :     0.090759
      dxz     :     0.013483
      dyz     :     0.008543
      dx2y2   :     0.031521
      dxy     :     0.030581
  3 C s       :     2.856821  s :     2.856821
      pz      :     1.029627  p :     3.138626
      px      :     1.057417
      py      :     1.051582
      dz2     :     0.009801  d :     0.103871
      dxz     :     0.013325
      dyz     :     0.009741
      dx2y2   :     0.034996
      dxy     :     0.036008
  4 C s       :     2.851715  s :     2.851715
      pz      :     0.940605  p :     3.034929
      px      :     1.024330
      py      :     1.069993
      dz2     :     0.008484  d :     0.107378
      dxz     :     0.013078
      dyz     :     0.016036
      dx2y2   :     0.034144
      dxy     :     0.035635
  5 C s       :     2.857223  s :     2.857223
      pz      :     0.972309  p :     3.067048
      px      :     1.051459
      py      :     1.043281
      dz2     :     0.006692  d :     0.089781
      dxz     :     0.012434
      dyz     :     0.008650
      dx2y2   :     0.029702
      dxy     :     0.032303
  6 C s       :     2.860892  s :     2.860892
      pz      :     0.946465  p :     3.046109
      px      :     1.053593
      py      :     1.046050
      dz2     :     0.007639  d :     0.090339
      dxz     :     0.012341
      dyz     :     0.008822
      dx2y2   :     0.028567
      dxy     :     0.032970
  7 H s       :     0.894618  s :     0.894618
      pz      :     0.012773  p :     0.066687
      px      :     0.019505
      py      :     0.034409
  8 H s       :     0.890015  s :     0.890015
      pz      :     0.015000  p :     0.067618
      px      :     0.016632
      py      :     0.035986
  9 C s       :     2.843708  s :     2.843708
      pz      :     1.050767  p :     3.141681
      px      :     1.014333
      py      :     1.076581
      dz2     :     0.009434  d :     0.082435
      dxz     :     0.021844
      dyz     :     0.020118
      dx2y2   :     0.021269
      dxy     :     0.009770
 10 H s       :     0.883941  s :     0.883941
      pz      :     0.024940  p :     0.067412
      px      :     0.012144
      py      :     0.030328
 11 H s       :     0.888894  s :     0.888894
      pz      :     0.019492  p :     0.070463
      px      :     0.015696
      py      :     0.035276
 12 C s       :     2.850360  s :     2.850360
      pz      :     0.918566  p :     2.762030
      px      :     0.863641
      py      :     0.979823
      dz2     :     0.040342  d :     0.307432
      dxz     :     0.024105
      dyz     :     0.101381
      dx2y2   :     0.068192
      dxy     :     0.073412
 13 O s       :     3.537307  s :     3.537307
      pz      :     1.629696  p :     4.610850
      px      :     1.488558
      py      :     1.492596
      dz2     :     0.004326  d :     0.032114
      dxz     :     0.000950
      dyz     :     0.007234
      dx2y2   :     0.010650
      dxy     :     0.008954
 14 O s       :     3.412293  s :     3.412293
      pz      :     1.645137  p :     4.596953
      px      :     1.678518
      py      :     1.273297
      dz2     :     0.003078  d :     0.027152
      dxz     :     0.003362
      dyz     :     0.010746
      dx2y2   :     0.003410
      dxy     :     0.006555
 15 H s       :     0.734745  s :     0.734745
      pz      :     0.051616  p :     0.207255
      px      :     0.060728
      py      :     0.094911
 16 C s       :     2.886719  s :     2.886719
      pz      :     0.719446  p :     2.761360
      px      :     1.000462
      py      :     1.041453
      dz2     :     0.011290  d :     0.203572
      dxz     :     0.032856
      dyz     :     0.006818
      dx2y2   :     0.051364
      dxy     :     0.101243
 17 O s       :     3.531067  s :     3.531067
      pz      :     1.338119  p :     4.583143
      px      :     1.457288
      py      :     1.787736
      dz2     :     0.003963  d :     0.029858
      dxz     :     0.006528
      dyz     :     0.000314
      dx2y2   :     0.011564
      dxy     :     0.007489
 18 H s       :     0.923171  s :     0.923171
      pz      :     0.007068  p :     0.063035
      px      :     0.021469
      py      :     0.034498
 19 H s       :     0.899792  s :     0.899792
      pz      :     0.015489  p :     0.067877
      px      :     0.016630
      py      :     0.035757
 20 H s       :     0.893089  s :     0.893089
      pz      :     0.025743  p :     0.065333
      px      :     0.021460
      py      :     0.018130
 21 H s       :     0.900931  s :     0.900931
      pz      :     0.013164  p :     0.064803
      px      :     0.014889
      py      :     0.036750
 22 H s       :     0.889826  s :     0.889826
      pz      :     0.033677  p :     0.065419
      px      :     0.012718
      py      :     0.019024


                      *****************************
                      * MAYER POPULATION ANALYSIS *
                      *****************************

  NA   - Mulliken gross atomic population
  ZA   - Total nuclear charge
  QA   - Mulliken gross atomic charge
  VA   - Mayer's total valence
  BVA  - Mayer's bonded valence
  FA   - Mayer's free valence

  ATOM       NA         ZA         QA         VA         BVA        FA
  0 C      5.9692     6.0000     0.0308     3.9053     3.9053    -0.0000
  1 C      6.0949     6.0000    -0.0949     3.9580     3.9580     0.0000
  2 C      6.0343     6.0000    -0.0343     3.8984     3.8984     0.0000
  3 C      6.0598     6.0000    -0.0598     3.7310     3.7310    -0.0000
  4 C      6.0868     6.0000    -0.0868     4.0079     4.0079    -0.0000
  5 C      6.0182     6.0000    -0.0182     3.8992     3.8992    -0.0000
  6 C      6.0057     6.0000    -0.0057     3.8797     3.8797    -0.0000
  7 H      0.9764     1.0000     0.0236     0.9921     0.9921    -0.0000
  8 H      0.9681     1.0000     0.0319     0.9981     0.9981     0.0000
  9 C      5.9846     6.0000     0.0154     3.8241     3.8241    -0.0000
 10 H      0.9477     1.0000     0.0523     1.0048     1.0048    -0.0000
 11 H      0.9389     1.0000     0.0611     1.0020     1.0020     0.0000
 12 C      5.8408     6.0000     0.1592     4.4090     4.4090    -0.0000
 13 O      8.2241     8.0000    -0.2241     2.2604     2.2604     0.0000
 14 O      8.1908     8.0000    -0.1908     2.2433     2.2433    -0.0000
 15 H      0.8089     1.0000     0.1911     1.0724     1.0724    -0.0000
 16 C      5.7895     6.0000     0.2105     4.0087     4.0087    -0.0000
 17 O      8.2587     8.0000    -0.2587     2.2239     2.2239    -0.0000
 18 H      0.9655     1.0000     0.0345     0.9873     0.9873    -0.0000
 19 H      0.9935     1.0000     0.0065     1.0013     1.0013    -0.0000
 20 H      0.9441     1.0000     0.0559     0.9905     0.9905     0.0000
 21 H      0.9626     1.0000     0.0374     0.9984     0.9984    -0.0000
 22 H      0.9370     1.0000     0.0630     0.9893     0.9893     0.0000

  Mayer bond orders larger than 0.100000
B(  0-C ,  1-C ) :   1.0358 B(  0-C , 20-H ) :   0.9630 B(  0-C , 21-H ) :   0.9687 
B(  0-C , 22-H ) :   0.9603 B(  1-C ,  2-C ) :   1.4234 B(  1-C ,  6-C ) :   1.3723 
B(  2-C ,  3-C ) :   1.3258 B(  2-C , 19-H ) :   0.9858 B(  3-C ,  4-C ) :   1.3663 
B(  3-C , 16-C ) :   0.9940 B(  4-C ,  5-C ) :   1.4044 B(  4-C ,  9-C ) :   1.0527 
B(  5-C ,  6-C ) :   1.4037 B(  5-C ,  8-H ) :   0.9871 B(  6-C ,  7-H ) :   0.9933 
B(  9-C , 10-H ) :   0.9243 B(  9-C , 11-H ) :   0.9277 B(  9-C , 12-C ) :   0.9533 
B( 12-C , 13-O ) :   2.1352 B( 12-C , 14-O ) :   1.2454 B( 14-O , 15-H ) :   0.9068 
B( 15-H , 17-O ) :   0.1190 B( 16-C , 17-O ) :   1.9752 B( 16-C , 18-H ) :   0.9634 


-------
TIMINGS
-------

Total SCF time: 0 days 0 hours 1 min 14 sec 

Total time                  ....      74.018 sec
Sum of individual times     ....      73.793 sec  ( 99.7%)

Fock matrix formation       ....      72.012 sec  ( 97.3%)
  XC integration            ....       3.942 sec  (  5.5% of F)
    Basis function eval.    ....       1.189 sec  ( 30.2% of XC)
    Density eval.           ....       0.754 sec  ( 19.1% of XC)
    XC-Functional eval.     ....       0.956 sec  ( 24.3% of XC)
    XC-Potential eval.      ....       0.930 sec  ( 23.6% of XC)
Diagonalization             ....       0.007 sec  (  0.0%)
Density matrix formation    ....       0.006 sec  (  0.0%)
Population analysis         ....       0.006 sec  (  0.0%)
Initial guess               ....       0.007 sec  (  0.0%)
Orbital Transformation      ....       0.000 sec  (  0.0%)
Orbital Orthonormalization  ....       0.005 sec  (  0.0%)
DIIS solution               ....       0.002 sec  (  0.0%)
SOSCF solution              ....       0.022 sec  (  0.0%)
Grid generation             ....       1.731 sec  (  2.3%)


-------------------------------------------------------------------------------
                          DFT DISPERSION CORRECTION                            
                                                                               
                              DFTD3 V3.1  Rev 1                                
                              USING zero damping                               
-------------------------------------------------------------------------------
The omegaB97X-D3 functional is recognized. Fit by Chai et al.
Active option DFTDOPT                   ...         3   

molecular C6(AA) [au] = 5839.258371 


            DFT-D V3
 parameters
 s6 scaling factor         :     1.0000 
 rs6 scaling factor        :     1.2810 
 s8 scaling factor         :     1.0000 
 rs8 scaling factor        :     1.0940 
 Damping factor alpha6     :    14.0000 
 Damping factor alpha8     :    16.0000 
 ad hoc parameters k1-k3   :    16.0000     1.3333    -4.0000 

 Edisp/kcal,au: -5.554586542674  -0.008851796156 
 E6   /kcal   :  -2.357588181 
 E8   /kcal   :  -3.196998362 
 % E8         :  57.556009563 

-------------------------   ----------------
Dispersion correction           -0.008851796
-------------------------   ----------------


-------------------------   --------------------
FINAL SINGLE POINT ENERGY      -612.165999206181
-------------------------   --------------------

                                *** OPTIMIZATION RUN DONE ***

                            ***************************************
                            *     ORCA property calculations      *
                            ***************************************

                                    ---------------------
                                    Active property flags
                                    ---------------------
   (+) Dipole Moment


------------------------------------------------------------------------------
                       ORCA ELECTRIC PROPERTIES CALCULATION
------------------------------------------------------------------------------

Dipole Moment Calculation                       ... on
Quadrupole Moment Calculation                   ... off
Polarizability Calculation                      ... off
GBWName                                         ... 010261645.gbw
Electron density file                           ... 010261645.scfp
The origin for moment calculation is the CENTER OF MASS  = ( 0.030077,  0.004951 -0.001780)

-------------
DIPOLE MOMENT
-------------
                                X             Y             Z
Electronic contribution:     10.20672       0.91342       0.37232
Nuclear contribution   :    -12.65991      -0.17366      -1.12495
                        -----------------------------------------
Total Dipole Moment    :     -2.45319       0.73976      -0.75263
                        -----------------------------------------
Magnitude (a.u.)       :      2.67055
Magnitude (Debye)      :      6.78800



--------------------
Rotational spectrum 
--------------------
 
Rotational constants in cm-1:     0.045710     0.018551     0.014354 
Rotational constants in MHz :  1370.349785   556.153770   430.308817 

 Dipole components along the rotational axes: 
x,y,z [a.u.] :    -2.458620     0.707207    -0.766081 
x,y,z [Debye]:    -6.249316     1.797576    -1.947223 

 

Timings for individual modules:

Sum of individual times         ...     2223.589 sec (=  37.060 min)
GTO integral calculation        ...        3.385 sec (=   0.056 min)   0.2 %
SCF iterations                  ...     1494.431 sec (=  24.907 min)  67.2 %
SCF Gradient evaluation         ...      716.277 sec (=  11.938 min)  32.2 %
Geometry relaxation             ...        9.496 sec (=   0.158 min)   0.4 %
                             ****ORCA TERMINATED NORMALLY****
TOTAL RUN TIME: 0 days 0 hours 37 minutes 5 seconds 81 msec
