
                                 *****************
                                 * O   R   C   A *
                                 *****************

           --- An Ab Initio, DFT and Semiempirical electronic structure package ---

                  #######################################################
                  #                        -***-                        #
                  #          Department of theory and spectroscopy      #
                  #               Directorship: Frank Neese             #
                  #        Max Planck Institute fuer Kohlenforschung    #
                  #                Kaiser Wilhelm Platz 1               #
                  #                 D-45470 Muelheim/Ruhr               #
                  #                      Germany                        #
                  #                                                     #
                  #                  All rights reserved                #
                  #                        -***-                        #
                  #######################################################


                         Program Version 4.2.0 -  RELEASE  -


 With contributions from (in alphabetic order):
   Daniel Aravena         : Magnetic Suceptibility
   Michael Atanasov       : Ab Initio Ligand Field Theory (pilot matlab implementation)
   Alexander A. Auer      : GIAO ZORA, VPT2
   Ute Becker             : Parallelization
   Giovanni Bistoni       : ED, misc. LED, open-shell LED, HFLED
   Martin Brehm           : Molecular dynamics
   Dmytro Bykov           : SCF Hessian
   Vijay G. Chilkuri      : MRCI spin determinant printing, contributions to CSF-ICE
   Dipayan Datta          : RHF DLPNO-CCSD density
   Achintya Kumar Dutta   : EOM-CC, STEOM-CC
   Dmitry Ganyushin       : Spin-Orbit,Spin-Spin,Magnetic field MRCI
   Miquel Garcia          : C-PCM Hessian, Gaussian charge scheme
   Yang Guo               : DLPNO-NEVPT2, CIM, IAO-localization
   Andreas Hansen         : Spin unrestricted coupled pair/coupled cluster methods
   Benjamin Helmich-Paris : CASSCF linear response (MC-RPA)
   Lee Huntington         : MR-EOM, pCC
   Robert Izsak           : Overlap fitted RIJCOSX, COSX-SCS-MP3, EOM
   Christian Kollmar      : KDIIS, OOCD, Brueckner-CCSD(T), CCSD density
   Simone Kossmann        : Meta GGA functionals, TD-DFT gradient, OOMP2, MP2 Hessian
   Martin Krupicka        : AUTO-CI
   Lucas Lang             : DCDCAS
   Dagmar Lenk            : GEPOL surface, SMD
   Dimitrios Liakos       : Extrapolation schemes; Compound Job, initial MDCI parallelization
   Dimitrios Manganas     : Further ROCIS development; embedding schemes
   Dimitrios Pantazis     : SARC Basis sets
   Taras Petrenko         : DFT Hessian,TD-DFT gradient, ASA, ECA, R-Raman, ABS, FL, XAS/XES, NRVS
   Peter Pinski           : DLPNO-MP2, DLPNO-MP2 Gradient
   Christoph Reimann      : Effective Core Potentials
   Marius Retegan         : Local ZFS, SOC
   Christoph Riplinger    : Optimizer, TS searches, QM/MM, DLPNO-CCSD(T), (RO)-DLPNO pert. Triples
   Tobias Risthaus        : Range-separated hybrids, TD-DFT gradient, RPA, STAB
   Michael Roemelt        : Original ROCIS implementation
   Masaaki Saitow         : Open-shell DLPNO-CCSD energy and density
   Barbara Sandhoefer     : DKH picture change effects
   Avijit Sen             : IP-ROCIS
   Kantharuban Sivalingam : CASSCF convergence, NEVPT2, FIC-MRCI
   Bernardo de Souza      : ESD, SOC TD-DFT
   Georgi Stoychev        : AutoAux, RI-MP2 NMR
   Willem Van den Heuvel  : Paramagnetic NMR
   Boris Wezisla          : Elementary symmetry handling
   Frank Wennmohs         : Technical directorship


 We gratefully acknowledge several colleagues who have allowed us to
 interface, adapt or use parts of their codes:
   Stefan Grimme, W. Hujo, H. Kruse,             : VdW corrections, initial TS optimization,
                  C. Bannwarth                     DFT functionals, gCP, sTDA/sTD-DF
   Ed Valeev, F. Pavosevic, A. Kumar             : LibInt (2-el integral package), F12 methods
   Garnet Chan, S. Sharma, J. Yang, R. Olivares  : DMRG
   Ulf Ekstrom                                   : XCFun DFT Library
   Mihaly Kallay                                 : mrcc  (arbitrary order and MRCC methods)
   Andreas Klamt, Michael Diedenhofen            : otool_cosmo (COSMO solvation model)
   Jiri Pittner, Ondrej Demel                    : Mk-CCSD
   Frank Weinhold                                : gennbo (NPA and NBO analysis)
   Christopher J. Cramer and Donald G. Truhlar   : smd solvation model
   Lars Goerigk                                  : TD-DFT with DH, B97 family of functionals
   V. Asgeirsson, H. Jonsson                     : NEB implementation
   FAccTs GmbH                                   : IRC, NEB, NEB-TS, Multilevel, MM, QM/MM, CI optimization
   S Lehtola, MJT Oliveira, MAL Marques          : LibXC Library


 Your calculation uses the libint2 library for the computation of 2-el integrals
 For citations please refer to: http://libint.valeyev.net

 Your ORCA version has been built with support for libXC version: 4.2.3
 For citations please refer to: https://tddft.org/programs/libxc/

 This ORCA versions uses:
   CBLAS   interface :  Fast vector & matrix operations
   LAPACKE interface :  Fast linear algebra routines
   SCALAPACK package :  Parallel linear algebra routines


Your calculation utilizes the atom-pairwise dispersion correction
with the zero-damping scheme (D30)
Cite in your paper:
S.Grimme, J.Antony, S.Ehrlich and H.Krieg, J.Chem.Phys., 132, (2010), 154104 
   

XCFun DFT library Copyright 2009-2010 Ulf Ekstrom and contributors.
See http://admol.org/xcfun for more information. This is free soft-
ware; see the source code for copying conditions. There is ABSOLUTELY
NO WARRANTY; not even for MERCHANTABILITY or FITNESS FOR A PARTICULAR
PURPOSE. For details see the documentation. Scientific users of this 
library should cite U. Ekstrom, L. Visscher, R. Bast, A. J. Thorvald-
sen and K. Ruud; J.Chem.Theor.Comp. 2010, DOI: 10.1021/ct100117s
XCFun Version 0.99 
----- Orbital basis set information -----
Your calculation utilizes the basis: def2-SVP
   F. Weigend and R. Ahlrichs, Phys. Chem. Chem. Phys. 7, 3297 (2005).

================================================================================
                                        WARNINGS
                       Please study these warnings very carefully!
================================================================================


WARNING: Geometry Optimization
  ===> : Switching off AutoStart
         For restart on a previous wavefunction, please use MOREAD

INFO   : the flag for use of LIBINT has been found!

================================================================================
                                       INPUT FILE
================================================================================
NAME = 016731996.inp
|  1> # ORCA input file
|  2> # -41.07890322
|  3> ! wB97X-D3 def2-SVP Opt
|  4> * xyz 0 1
|  5>    C       -0.61940        -2.11550         0.48930
|  6>    C       -0.13120        -0.70300         0.42240
|  7>    C        1.19470        -0.40790         0.11370
|  8>    C        1.64680         0.91290         0.03240
|  9>    C        0.76070         1.96240         0.26700
| 10>    C       -0.55010         1.68110         0.58710
| 11>    C       -0.99760         0.36770         0.67530
| 12>    C       -2.44800         0.12320         1.01220
| 13>    H       -2.57220        -0.79700         1.57950
| 14>    C       -3.20580         0.00820        -0.29470
| 15>    O       -3.40240        -1.00960        -0.89970
| 16>    O       -3.61270         1.20300        -0.72870
| 17>    H       -4.06150         1.12610        -1.58570
| 18>    H       -2.84590         0.96990         1.56990
| 19>    H       -1.24160         2.48960         0.76960
| 20>    H        1.11210         2.98030         0.19820
| 21>    C        2.99510         1.19450        -0.28800
| 22>    N        4.08320         1.44500        -0.54580
| 23>   Cl        2.34830        -1.66410        -0.18700
| 24>    H       -0.84630        -2.38750         1.52020
| 25>    H        0.13530        -2.79990         0.11610
| 26>    H       -1.52340        -2.23260        -0.10380
| 27> *
| 28> 
| 29>                          ****END OF INPUT****
================================================================================

                       *****************************
                       * Geometry Optimization Run *
                       *****************************

Geometry optimization settings:
Update method            Update   .... BFGS
Choice of coordinates    CoordSys .... Z-matrix Internals
Initial Hessian          InHess   .... Almoef's Model

Convergence Tolerances:
Energy Change            TolE     ....  5.0000e-06 Eh
Max. Gradient            TolMAXG  ....  3.0000e-04 Eh/bohr
RMS Gradient             TolRMSG  ....  1.0000e-04 Eh/bohr
Max. Displacement        TolMAXD  ....  4.0000e-03 bohr
RMS Displacement         TolRMSD  ....  2.0000e-03 bohr
Strict Convergence                ....  False
------------------------------------------------------------------------------
                        ORCA OPTIMIZATION COORDINATE SETUP
------------------------------------------------------------------------------

The optimization will be done in new redundant internal coordinates
Making redundant internal coordinates   ...  (new redundants) done
Evaluating the initial hessian          ...  (Almloef) done
Evaluating the coordinates              ...  done
Calculating the B-matrix                .... done
Calculating the G-matrix                .... done
Diagonalizing the G-matrix              .... done
Small eigenvalue found = 2.063e-02
Small eigenvalue found = 2.245e-02
The first mode is                       ....   42
The number of degrees of freedom        ....   60

    -----------------------------------------------------------------
                    Redundant Internal Coordinates


    -----------------------------------------------------------------
         Definition                    Initial Value    Approx d2E/dq
    -----------------------------------------------------------------
      1. B(C   1,C   0)                  1.4960         0.423298   
      2. B(C   2,C   1)                  1.3930         0.617996   
      3. B(C   3,C   2)                  1.3984         0.605815   
      4. B(C   4,C   3)                  1.3934         0.616962   
      5. B(C   5,C   4)                  1.3783         0.652168   
      6. B(C   6,C   5)                  1.3903         0.624009   
      7. B(C   6,C   1)                  1.4004         0.601466   
      8. B(C   7,C   6)                  1.5090         0.403604   
      9. B(H   8,C   7)                  1.0881         0.362585   
     10. B(C   9,C   7)                  1.5151         0.394619   
     11. B(O  10,C   9)                  1.2002         1.123606   
     12. B(O  11,C   9)                  1.3347         0.685607   
     13. B(H  12,O  11)                  0.9705         0.500363   
     14. B(H  13,C   7)                  1.0892         0.361222   
     15. B(H  14,C   5)                  1.0794         0.374370   
     16. B(H  15,C   4)                  1.0790         0.374889   
     17. B(C  16,C   3)                  1.4142         0.571718   
     18. B(N  17,C  16)                  1.1459         1.371708   
     19. B(Cl 18,C   2)                  1.7318         0.399355   
     20. B(H  19,C   0)                  1.0901         0.360026   
     21. B(H  20,C   0)                  1.0850         0.366758   
     22. B(H  21,C   0)                  1.0875         0.363398   
     23. A(C   1,C   0,H  19)          110.2322         0.331058   
     24. A(C   1,C   0,H  21)          110.3986         0.331569   
     25. A(H  19,C   0,H  20)          108.2209         0.291669   
     26. A(H  19,C   0,H  21)          108.4138         0.291247   
     27. A(H  20,C   0,H  21)          108.8255         0.292097   
     28. A(C   1,C   0,H  20)          110.6832         0.332075   
     29. A(C   0,C   1,C   6)          120.7930         0.403344   
     30. A(C   2,C   1,C   6)          117.8365         0.431453   
     31. A(C   0,C   1,C   2)          121.3699         0.405278   
     32. A(C   1,C   2,Cl 18)          121.2552         0.419143   
     33. A(C   3,C   2,Cl 18)          117.3651         0.417659   
     34. A(C   1,C   2,C   3)          121.3797         0.432012   
     35. A(C   4,C   3,C  16)          119.6341         0.427415   
     36. A(C   2,C   3,C   4)          119.7359         0.431882   
     37. A(C   2,C   3,C  16)          120.6299         0.426022   
     38. A(C   5,C   4,H  15)          121.1335         0.358391   
     39. A(C   3,C   4,H  15)          119.5163         0.355028   
     40. A(C   3,C   4,C   5)          119.3499         0.437651   
     41. A(C   4,C   5,C   6)          120.9052         0.438549   
     42. A(C   6,C   5,H  14)          119.3829         0.355629   
     43. A(C   4,C   5,H  14)          119.7117         0.358306   
     44. A(C   5,C   6,C   7)          118.4637         0.402573   
     45. A(C   1,C   6,C   7)          120.7387         0.399972   
     46. A(C   1,C   6,C   5)          120.7760         0.432204   
     47. A(H   8,C   7,C   9)          109.1739         0.327627   
     48. A(C   6,C   7,C   9)          107.4860         0.371679   
     49. A(C   6,C   7,H   8)          111.2931         0.328846   
     50. A(C   9,C   7,H  13)          108.5402         0.327424   
     51. A(H   8,C   7,H  13)          110.4116         0.291296   
     52. A(C   6,C   7,H  13)          109.8473         0.328642   
     53. A(C   7,C   9,O  11)          111.4087         0.405075   
     54. A(C   7,C   9,O  10)          125.5276         0.442467   
     55. A(O  10,C   9,O  11)          123.0424         0.486245   
     56. A(C   9,O  11,H  12)          110.9283         0.374100   
     57. L(C   3,C  16,N  17,C   4, 2) 179.9703         0.491162   
     58. L(C   3,C  16,N  17,C   4, 1) 178.8587         0.491162   
     59. D(C   6,C   1,C   0,H  20)    171.0778         0.013244   
     60. D(C   2,C   1,C   0,H  19)    110.4991         0.013244   
     61. D(C   2,C   1,C   0,H  21)   -129.7500         0.013244   
     62. D(C   6,C   1,C   0,H  19)    -69.2295         0.013244   
     63. D(C   6,C   1,C   0,H  21)     50.5214         0.013244   
     64. D(C   2,C   1,C   0,H  20)     -9.1936         0.013244   
     65. D(C   3,C   2,C   1,C   0)    179.0765         0.026417   
     66. D(Cl 18,C   2,C   1,C   6)    178.9035         0.026417   
     67. D(C   3,C   2,C   1,C   6)     -1.1871         0.026417   
     68. D(Cl 18,C   2,C   1,C   0)     -0.8329         0.026417   
     69. D(C  16,C   3,C   2,C   1)   -179.7196         0.025328   
     70. D(C   4,C   3,C   2,Cl 18)   -179.9115         0.025328   
     71. D(C  16,C   3,C   2,Cl 18)      0.1932         0.025328   
     72. D(C   4,C   3,C   2,C   1)      0.1758         0.025328   
     73. D(C   5,C   4,C   3,C   2)      0.5095         0.026324   
     74. D(H  15,C   4,C   3,C  16)      0.2184         0.026324   
     75. D(C   5,C   4,C   3,C  16)   -179.5941         0.026324   
     76. D(H  15,C   4,C   3,C   2)   -179.6780         0.026324   
     77. D(H  14,C   5,C   4,H  15)      0.2158         0.029628   
     78. D(C   6,C   5,C   4,H  15)   -179.9583         0.029628   
     79. D(C   6,C   5,C   4,C   3)     -0.1490         0.029628   
     80. D(H  14,C   5,C   4,C   3)   -179.9748         0.029628   
     81. D(C   7,C   6,C   5,H  14)      0.5997         0.026966   
     82. D(C   7,C   6,C   5,C   4)   -179.2268         0.026966   
     83. D(C   1,C   6,C   5,H  14)    178.9223         0.026966   
     84. D(C   1,C   6,C   5,C   4)     -0.9042         0.026966   
     85. D(C   7,C   6,C   1,C   2)    179.8302         0.024946   
     86. D(C   7,C   6,C   1,C   0)     -0.4319         0.024946   
     87. D(C   5,C   6,C   1,C   2)      1.5458         0.024946   
     88. D(C   5,C   6,C   1,C   0)   -178.7162         0.024946   
     89. D(H   8,C   7,C   6,C   1)     33.5486         0.012080   
     90. D(H  13,C   7,C   6,C   5)    -25.5375         0.012080   
     91. D(H  13,C   7,C   6,C   1)    156.1393         0.012080   
     92. D(C   9,C   7,C   6,C   5)     92.3761         0.012080   
     93. D(C   9,C   7,C   6,C   1)    -85.9472         0.012080   
     94. D(H   8,C   7,C   6,C   5)   -148.1281         0.012080   
     95. D(O  11,C   9,C   7,H  13)     30.9707         0.011572   
     96. D(O  11,C   9,C   7,H   8)    151.3736         0.011572   
     97. D(O  11,C   9,C   7,C   6)    -87.7867         0.011572   
     98. D(O  10,C   9,C   7,H  13)   -150.6741         0.011572   
     99. D(O  10,C   9,C   7,H   8)    -30.2712         0.011572   
    100. D(O  10,C   9,C   7,C   6)     90.5686         0.011572   
    101. D(H  12,O  11,C   9,O  10)     -0.9977         0.035064   
    102. D(H  12,O  11,C   9,C   7)    177.4055         0.035064   
    -----------------------------------------------------------------

Number of atoms                         .... 22
Number of degrees of freedom            .... 102

         *************************************************************
         *                GEOMETRY OPTIMIZATION CYCLE   1            *
         *************************************************************
---------------------------------
CARTESIAN COORDINATES (ANGSTROEM)
---------------------------------
  C     -0.619400   -2.115500    0.489300
  C     -0.131200   -0.703000    0.422400
  C      1.194700   -0.407900    0.113700
  C      1.646800    0.912900    0.032400
  C      0.760700    1.962400    0.267000
  C     -0.550100    1.681100    0.587100
  C     -0.997600    0.367700    0.675300
  C     -2.448000    0.123200    1.012200
  H     -2.572200   -0.797000    1.579500
  C     -3.205800    0.008200   -0.294700
  O     -3.402400   -1.009600   -0.899700
  O     -3.612700    1.203000   -0.728700
  H     -4.061500    1.126100   -1.585700
  H     -2.845900    0.969900    1.569900
  H     -1.241600    2.489600    0.769600
  H      1.112100    2.980300    0.198200
  C      2.995100    1.194500   -0.288000
  N      4.083200    1.445000   -0.545800
  Cl     2.348300   -1.664100   -0.187000
  H     -0.846300   -2.387500    1.520200
  H      0.135300   -2.799900    0.116100
  H     -1.523400   -2.232600   -0.103800

----------------------------
CARTESIAN COORDINATES (A.U.)
----------------------------
  NO LB      ZA    FRAG     MASS         X           Y           Z
   0 C     6.0000    0    12.011   -1.170496   -3.997716    0.924643
   1 C     6.0000    0    12.011   -0.247932   -1.328477    0.798220
   2 C     6.0000    0    12.011    2.257656   -0.770819    0.214862
   3 C     6.0000    0    12.011    3.112001    1.725131    0.061227
   4 C     6.0000    0    12.011    1.437515    3.708399    0.504557
   5 C     6.0000    0    12.011   -1.039538    3.176819    1.109458
   6 C     6.0000    0    12.011   -1.885191    0.694852    1.276132
   7 C     6.0000    0    12.011   -4.626050    0.232814    1.912781
   8 H     1.0000    0     1.008   -4.860754   -1.506112    2.984822
   9 C     6.0000    0    12.011   -6.058084    0.015496   -0.556902
  10 O     8.0000    0    15.999   -6.429604   -1.907868   -1.700187
  11 O     8.0000    0    15.999   -6.827014    2.273341   -1.377043
  12 H     1.0000    0     1.008   -7.675123    2.128021   -2.996539
  13 H     1.0000    0     1.008   -5.377972    1.832845    2.966681
  14 H     1.0000    0     1.008   -2.346284    4.704662    1.454333
  15 H     1.0000    0     1.008    2.101564    5.631951    0.374544
  16 C     6.0000    0    12.011    5.659919    2.257278   -0.544241
  17 N     7.0000    0    14.007    7.716130    2.730654   -1.031413
  18 Cl   17.0000    0    35.453    4.437644   -3.144693   -0.353379
  19 H     1.0000    0     1.008   -1.599275   -4.511721    2.872762
  20 H     1.0000    0     1.008    0.255680   -5.291044    0.219397
  21 H     1.0000    0     1.008   -2.878809   -4.219003   -0.196154

--------------------------------
INTERNAL COORDINATES (ANGSTROEM)
--------------------------------
 C      0   0   0     0.000000000000     0.00000000     0.00000000
 C      1   0   0     1.495984993240     0.00000000     0.00000000
 C      2   1   0     1.392979005585   121.36991388     0.00000000
 C      3   2   1     1.398397919049   121.37966477   179.07649558
 C      4   3   2     1.393434828042   119.73594790     0.17575506
 C      5   4   3     1.378328821436   119.34987024     0.50951395
 C      6   5   4     1.390343500722   120.90523354   359.85103643
 C      7   6   5     1.508953948933   118.46373512   180.77324135
 H      8   7   6     1.088128195573   111.29314307   211.87190497
 C      8   7   6     1.515081994481   107.48596107    92.37608003
 O     10   8   7     1.200247224533   125.52757418    90.56855247
 O     10   8   7     1.334717442008   111.40868125   272.21333542
 H     12  10   8     0.970455588886   110.92829765   177.40545823
 H      8   7   6     1.089153152683   109.84726743   334.46252942
 H      6   5   4     1.079421488576   119.71166551   180.02515575
 H      5   4   3     1.079043933304   119.51633633   180.32200812
 C      4   3   2     1.414166754665   120.62990486   180.28041307
 N     17   4   3     1.145937476479   178.85863054   180.66509761
 Cl     3   2   1     1.731834833349   121.25517134   359.16712638
 H      1   2   3     1.090056154517   110.23217684   110.49911483
 H      1   2   3     1.085013221118   110.68324351   350.80644330
 H      1   2   3     1.087518284904   110.39858910   230.25000110

---------------------------
INTERNAL COORDINATES (A.U.)
---------------------------
 C      0   0   0     0.000000000000     0.00000000     0.00000000
 C      1   0   0     2.827001937680     0.00000000     0.00000000
 C      2   1   0     2.632348830857   121.36991388     0.00000000
 C      3   2   1     2.642589093248   121.37966477   179.07649558
 C      4   3   2     2.633210210467   119.73594790     0.17575506
 C      5   4   3     2.604663995004   119.34987024     0.50951395
 C      6   5   4     2.627368448442   120.90523354   359.85103643
 C      7   6   5     2.851509712182   118.46373512   180.77324135
 H      8   7   6     2.056264288230   111.29314307   211.87190497
 C      8   7   6     2.863090040004   107.48596107    92.37608003
 O     10   8   7     2.268138547367   125.52757418    90.56855247
 O     10   8   7     2.522250431563   111.40868125   272.21333542
 H     12  10   8     1.833895288128   110.92829765   177.40545823
 H      8   7   6     2.058201176468   109.84726743   334.46252942
 H      6   5   4     2.039810996479   119.71166551   180.02515575
 H      5   4   3     2.039097520414   119.51633633   180.32200812
 C      4   3   2     2.672387874013   120.62990486   180.28041307
 N     17   4   3     2.165507997143   178.85863054   180.66509761
 Cl     3   2   1     3.272693544214   121.25517134   359.16712638
 H      1   2   3     2.059907602632   110.23217684   110.49911483
 H      1   2   3     2.050377839596   110.68324351   350.80644330
 H      1   2   3     2.055111724100   110.39858910   230.25000110

---------------------
BASIS SET INFORMATION
---------------------
There are 5 groups of distinct atoms

 Group   1 Type C   : 7s4p1d contracted to 3s2p1d pattern {511/31/1}
 Group   2 Type H   : 4s1p contracted to 2s1p pattern {31/1}
 Group   3 Type O   : 7s4p1d contracted to 3s2p1d pattern {511/31/1}
 Group   4 Type N   : 7s4p1d contracted to 3s2p1d pattern {511/31/1}
 Group   5 Type Cl  : 10s7p1d contracted to 4s3p1d pattern {5311/511/1}

Atom   0C    basis set group =>   1
Atom   1C    basis set group =>   1
Atom   2C    basis set group =>   1
Atom   3C    basis set group =>   1
Atom   4C    basis set group =>   1
Atom   5C    basis set group =>   1
Atom   6C    basis set group =>   1
Atom   7C    basis set group =>   1
Atom   8H    basis set group =>   2
Atom   9C    basis set group =>   1
Atom  10O    basis set group =>   3
Atom  11O    basis set group =>   3
Atom  12H    basis set group =>   2
Atom  13H    basis set group =>   2
Atom  14H    basis set group =>   2
Atom  15H    basis set group =>   2
Atom  16C    basis set group =>   1
Atom  17N    basis set group =>   4
Atom  18Cl   basis set group =>   5
Atom  19H    basis set group =>   2
Atom  20H    basis set group =>   2
Atom  21H    basis set group =>   2
------------------------------------------------------------------------------
                           ORCA GTO INTEGRAL CALCULATION
------------------------------------------------------------------------------

                         BASIS SET STATISTICS AND STARTUP INFO

 # of primitive gaussian shells          ...  214
 # of primitive gaussian functions       ...  404
 # of contracted shells                  ...  110
 # of contracted basis functions         ...  240
 Highest angular momentum                ...    2
 Maximum contraction depth               ...    5
 Integral package used                   ... LIBINT
 Integral threshhold            Thresh   ...  2.500e-11
 Primitive cut-off              TCut     ...  2.500e-12


------------------------------ INTEGRAL EVALUATION ----------------------------


 * One electron integrals 
 Pre-screening matrix                    ... done
 Shell pair data                         ... done (   0.002 sec)

-------------------------------------------------------------------------------
                                 ORCA SCF
-------------------------------------------------------------------------------

------------
SCF SETTINGS
------------
Hamiltonian:
 Density Functional     Method          .... DFT(GTOs)
 Exchange Functional    Exchange        .... WB97X-D3
 Correlation Functional Correlation     .... WB97X-D3
 Gradients option       PostSCFGGA      .... off
 Hybrid DFT is turned on
   Fraction HF Exchange ScalHFX         ....  0.195728
   Scaling of DF-GGA-X  ScalDFX         ....  0.000000
   Scaling of DF-GGA-C  ScalDFC         ....  1.000000
   Scaling of DF-LDA-C  ScalLDAC        ....  1.000000
   Perturbative correction              ....  0.000000
   Density functional embedding theory  .... OFF
 Long-range corrected/Screened/Range-Separated Hybrid DFT is turned on
   Amount of maximum screened exact exchange              ....  0.804272
   Range separation parameter mu (erf(mu*r12)/r12)        ....  0.250000


General Settings:
 Integral files         IntName         .... 016731996
 Hartree-Fock type      HFTyp           .... RHF
 Total Charge           Charge          ....    0
 Multiplicity           Mult            ....    1
 Number of Electrons    NEL             ....  108
 Basis Dimension        Dim             ....  240
 Nuclear Repulsion      ENuc            ....    930.7667061181 Eh

Convergence Acceleration:
 DIIS                   CNVDIIS         .... on
   Start iteration      DIISMaxIt       ....    12
   Startup error        DIISStart       ....  0.200000
   # of expansion vecs  DIISMaxEq       ....     5
   Bias factor          DIISBfac        ....   1.050
   Max. coefficient     DIISMaxC        ....  10.000
 Newton-Raphson         CNVNR           .... off
 SOSCF                  CNVSOSCF        .... on
   Start iteration      SOSCFMaxIt      ....   150
   Startup grad/error   SOSCFStart      ....  0.003300
 Level Shifting         CNVShift        .... on
   Level shift para.    LevelShift      ....    0.2500
   Turn off err/grad.   ShiftErr        ....    0.0010
 Zerner damping         CNVZerner       .... off
 Static damping         CNVDamp         .... on
   Fraction old density DampFac         ....    0.7000
   Max. Damping (<1)    DampMax         ....    0.9800
   Min. Damping (>=0)   DampMin         ....    0.0000
   Turn off err/grad.   DampErr         ....    0.1000
 Fernandez-Rico         CNVRico         .... off

SCF Procedure:
 Maximum # iterations   MaxIter         ....   125
 SCF integral mode      SCFMode         .... Direct
   Integral package                     .... LIBINT
 Reset frequency        DirectResetFreq ....    20
 Integral Threshold     Thresh          ....  2.500e-11 Eh
 Primitive CutOff       TCut            ....  2.500e-12 Eh

Convergence Tolerance:
 Convergence Check Mode ConvCheckMode   .... Total+1el-Energy
 Convergence forced     ConvForced      .... 0
 Energy Change          TolE            ....  1.000e-08 Eh
 1-El. energy change                    ....  1.000e-05 Eh
 Orbital Gradient       TolG            ....  1.000e-05
 Orbital Rotation angle TolX            ....  1.000e-05
 DIIS Error             TolErr          ....  5.000e-07


Diagonalization of the overlap matrix:
Smallest eigenvalue                        ... 1.955e-04
Time for diagonalization                   ...    0.008 sec
Threshold for overlap eigenvalues          ... 1.000e-08
Number of eigenvalues below threshold      ... 0
Time for construction of square roots      ...    0.003 sec
Total time needed                          ...    0.012 sec

-------------------
DFT GRID GENERATION
-------------------

General Integration Accuracy     IntAcc      ...  4.340
Radial Grid Type                 RadialGrid  ... Gauss-Chebyshev
Angular Grid (max. acc.)         AngularGrid ... Lebedev-110
Angular grid pruning method      GridPruning ... 3 (G Style)
Weight generation scheme         WeightScheme... Becke
Basis function cutoff            BFCut       ...    1.0000e-11
Integration weight cutoff        WCut        ...    1.0000e-14
Grids for H and He will be reduced by one unit

# of grid points (after initial pruning)     ...  29890 (   0.0 sec)
# of grid points (after weights+screening)   ...  27311 (   0.1 sec)
nearest neighbour list constructed           ...    0.0 sec
Grid point re-assignment to atoms done       ...    0.0 sec
Grid point division into batches done        ...    0.0 sec
Reduced shell lists constructed in    0.2 sec

Total number of grid points                  ...    27311
Total number of batches                      ...      436
Average number of points per batch           ...       62
Average number of grid points per atom       ...     1241
Average number of shells per batch           ...    66.38 (60.35%)
Average number of basis functions per batch  ...   140.84 (58.69%)
Average number of large shells per batch     ...    48.54 (73.12%)
Average number of large basis fcns per batch ...   101.76 (72.25%)
Maximum spatial batch extension              ...  22.44, 20.12, 23.17 au
Average spatial batch extension              ...   3.56,  3.40,  3.91 au

Time for grid setup =    0.323 sec

------------------------------
INITIAL GUESS: MODEL POTENTIAL
------------------------------
Loading Hartree-Fock densities                     ... done
Calculating cut-offs                               ... done
Setting up the integral package                    ... done
Initializing the effective Hamiltonian             ... done
Starting the Coulomb interaction                   ... done (   0.2 sec)
Reading the grid                                   ... done
Mapping shells                                     ... done
Starting the XC term evaluation                    ... done (   0.3 sec)
  promolecular density results
     # of electrons  =    107.985385147
     EX              =   -103.738852799
     EC              =     -3.721625979
     EX+EC           =   -107.460478778
Transforming the Hamiltonian                       ... done (   0.0 sec)
Diagonalizing the Hamiltonian                      ... done (   0.0 sec)
Back transforming the eigenvectors                 ... done (   0.0 sec)
Now organizing SCF variables                       ... done
                      ------------------
                      INITIAL GUESS DONE (   1.0 sec)
                      ------------------
--------------
SCF ITERATIONS
--------------
ITER       Energy         Delta-E        Max-DP      RMS-DP      [F,P]     Damp
               ***  Starting incremental Fock matrix formation  ***
  0  -1050.2193510006   0.000000000000 0.07499055  0.00198453  0.2423736 0.7000
  1  -1050.3540511228  -0.134700122258 0.04586616  0.00140418  0.1174012 0.7000
                               ***Turning on DIIS***
  2  -1050.4168164715  -0.062765348667 0.08028522  0.00279709  0.0508106 0.0000
  3  -1050.5222136440  -0.105397172518 0.04126403  0.00085894  0.0569013 0.0000
  4  -1050.5377338741  -0.015520230101 0.01379646  0.00027668  0.0133581 0.0000
  5  -1050.5385195772  -0.000785703090 0.00416746  0.00009806  0.0038323 0.0000
                      *** Initiating the SOSCF procedure ***
                           *** Shutting down DIIS ***
                      *** Re-Reading the Fockian *** 
                      *** Removing any level shift *** 
ITER      Energy       Delta-E        Grad      Rot      Max-DP    RMS-DP
  6  -1050.53861796  -0.0000983845  0.001422  0.001422  0.001828  0.000049
               *** Restarting incremental Fock matrix formation ***
  7  -1050.53864656  -0.0000285970  0.000811  0.002297  0.001160  0.000036
  8  -1050.53865833  -0.0000117672  0.000332  0.002495  0.001299  0.000039
  9  -1050.53866109  -0.0000027664  0.000215  0.000560  0.000456  0.000012
 10  -1050.53866247  -0.0000013773  0.000070  0.000162  0.000202  0.000005
 11  -1050.53866252  -0.0000000500  0.000045  0.000128  0.000119  0.000003
 12  -1050.53866262  -0.0000000972  0.000010  0.000024  0.000024  0.000001
 13  -1050.53866262  -0.0000000017  0.000008  0.000012  0.000015  0.000000
                  ***Gradient check signals convergence***
              ***Rediagonalizing the Fockian in SOSCF/NRSCF***

               *****************************************************
               *                     SUCCESS                       *
               *           SCF CONVERGED AFTER  14 CYCLES          *
               *****************************************************

Setting up the final grid:

General Integration Accuracy     IntAcc      ...  4.670
Radial Grid Type                 RadialGrid  ... Gauss-Chebyshev
Angular Grid (max. acc.)         AngularGrid ... Lebedev-302
Angular grid pruning method      GridPruning ... 3 (G Style)
Weight generation scheme         WeightScheme... Becke
Basis function cutoff            BFCut       ...    1.0000e-11
Integration weight cutoff        WCut        ...    1.0000e-14
Grids for H and He will be reduced by one unit

# of grid points (after initial pruning)     ... 114646 (   0.0 sec)
# of grid points (after weights+screening)   ... 102823 (   0.3 sec)
nearest neighbour list constructed           ...    0.0 sec
Grid point re-assignment to atoms done       ...    0.0 sec
Grid point division into batches done        ...    0.4 sec
Reduced shell lists constructed in    1.0 sec

Total number of grid points                  ...   102823
Total number of batches                      ...     1619
Average number of points per batch           ...       63
Average number of grid points per atom       ...     4674
Average number of shells per batch           ...    60.65 (55.14%)
Average number of basis functions per batch  ...   127.56 (53.15%)
Average number of large shells per batch     ...    43.52 (71.75%)
Average number of large basis fcns per batch ...    90.41 (70.88%)
Maximum spatial batch extension              ...  17.67, 15.76, 18.46 au
Average spatial batch extension              ...   2.36,  2.35,  2.46 au

Final grid set up in    1.4 sec
Final integration                            ... done (   1.6 sec)
Change in XC energy                          ...     0.000035742
Integrated number of electrons               ...   108.000107451
Previous integrated no of electrons          ...   107.996529825

----------------
TOTAL SCF ENERGY
----------------

Total Energy       :        -1050.53862688 Eh          -28586.60935 eV

Components:
Nuclear Repulsion  :          930.76670612 Eh           25327.44970 eV
Electronic Energy  :        -1981.30533300 Eh          -53914.05905 eV
One Electron Energy:        -3284.50761400 Eh          -89375.99596 eV
Two Electron Energy:         1303.20228100 Eh           35461.93692 eV

Virial components:
Potential Energy   :        -2094.69224425 Eh          -56999.47376 eV
Kinetic Energy     :         1044.15361737 Eh           28412.86441 eV
Virial Ratio       :            2.00611501


DFT components:
N(Alpha)           :       54.000053725567 electrons
N(Beta)            :       54.000053725567 electrons
N(Total)           :      108.000107451134 electrons
E(XC)              :      -77.167922133204 Eh       
DFET-embed. en.    :        0.000000000000 Eh       

---------------
SCF CONVERGENCE
---------------

  Last Energy change         ...   -1.4215e-09  Tolerance :   1.0000e-08
  Last MAX-Density change    ...    4.7566e-06  Tolerance :   1.0000e-07
  Last RMS-Density change    ...    1.2857e-07  Tolerance :   5.0000e-09
  Last Orbital Gradient      ...    1.6075e-06  Tolerance :   1.0000e-05
  Last Orbital Rotation      ...    5.9601e-06  Tolerance :   1.0000e-05

             **** THE GBW FILE WAS UPDATED (016731996.gbw) ****
             **** DENSITY FILE WAS UPDATED (016731996.scfp) ****
             **** ENERGY FILE WAS UPDATED (016731996.en.tmp) ****
             **** THE GBW FILE WAS UPDATED (016731996.gbw) ****
             **** DENSITY FILE WAS UPDATED (016731996.scfp) ****
----------------
ORBITAL ENERGIES
----------------

  NO   OCC          E(Eh)            E(eV) 
   0   2.0000    -101.616549     -2765.1269 
   1   2.0000     -19.310365      -525.4617 
   2   2.0000     -19.248836      -523.7875 
   3   2.0000     -14.431679      -392.7059 
   4   2.0000     -10.444150      -284.1998 
   5   2.0000     -10.377081      -282.3747 
   6   2.0000     -10.348783      -281.6047 
   7   2.0000     -10.337627      -281.3011 
   8   2.0000     -10.333242      -281.1818 
   9   2.0000     -10.330790      -281.1151 
  10   2.0000     -10.328332      -281.0482 
  11   2.0000     -10.327742      -281.0321 
  12   2.0000     -10.319564      -280.8096 
  13   2.0000     -10.295463      -280.1538 
  14   2.0000      -9.588859      -260.9261 
  15   2.0000      -7.349525      -199.9907 
  16   2.0000      -7.338830      -199.6997 
  17   2.0000      -7.338475      -199.6901 
  18   2.0000      -1.238952       -33.7136 
  19   2.0000      -1.142287       -31.0832 
  20   2.0000      -1.047103       -28.4931 
  21   2.0000      -1.015093       -27.6221 
  22   2.0000      -0.985098       -26.8059 
  23   2.0000      -0.942444       -25.6452 
  24   2.0000      -0.898762       -24.4565 
  25   2.0000      -0.867716       -23.6117 
  26   2.0000      -0.820270       -22.3207 
  27   2.0000      -0.773805       -21.0563 
  28   2.0000      -0.733391       -19.9566 
  29   2.0000      -0.723863       -19.6973 
  30   2.0000      -0.665415       -18.1069 
  31   2.0000      -0.636079       -17.3086 
  32   2.0000      -0.618327       -16.8255 
  33   2.0000      -0.613120       -16.6839 
  34   2.0000      -0.603077       -16.4106 
  35   2.0000      -0.565031       -15.3753 
  36   2.0000      -0.554448       -15.0873 
  37   2.0000      -0.553636       -15.0652 
  38   2.0000      -0.539024       -14.6676 
  39   2.0000      -0.528246       -14.3743 
  40   2.0000      -0.517544       -14.0831 
  41   2.0000      -0.512787       -13.9536 
  42   2.0000      -0.508732       -13.8433 
  43   2.0000      -0.477692       -12.9986 
  44   2.0000      -0.475479       -12.9384 
  45   2.0000      -0.460378       -12.5275 
  46   2.0000      -0.457935       -12.4611 
  47   2.0000      -0.450618       -12.2619 
  48   2.0000      -0.439020       -11.9463 
  49   2.0000      -0.437855       -11.9147 
  50   2.0000      -0.415601       -11.3091 
  51   2.0000      -0.397162       -10.8073 
  52   2.0000      -0.352828        -9.6009 
  53   2.0000      -0.348324        -9.4784 
  54   0.0000       0.005126         0.1395 
  55   0.0000       0.039561         1.0765 
  56   0.0000       0.081649         2.2218 
  57   0.0000       0.120581         3.2812 
  58   0.0000       0.122863         3.3433 
  59   0.0000       0.130330         3.5465 
  60   0.0000       0.148394         4.0380 
  61   0.0000       0.158419         4.3108 
  62   0.0000       0.160039         4.3549 
  63   0.0000       0.188315         5.1243 
  64   0.0000       0.206093         5.6081 
  65   0.0000       0.219522         5.9735 
  66   0.0000       0.222170         6.0456 
  67   0.0000       0.241304         6.5662 
  68   0.0000       0.253285         6.8922 
  69   0.0000       0.266659         7.2561 
  70   0.0000       0.277888         7.5617 
  71   0.0000       0.300995         8.1905 
  72   0.0000       0.317844         8.6490 
  73   0.0000       0.336945         9.1687 
  74   0.0000       0.353647         9.6232 
  75   0.0000       0.364145         9.9089 
  76   0.0000       0.368418        10.0252 
  77   0.0000       0.395693        10.7673 
  78   0.0000       0.403608        10.9827 
  79   0.0000       0.413621        11.2552 
  80   0.0000       0.446633        12.1535 
  81   0.0000       0.458663        12.4809 
  82   0.0000       0.480859        13.0848 
  83   0.0000       0.496980        13.5235 
  84   0.0000       0.517125        14.0717 
  85   0.0000       0.520825        14.1724 
  86   0.0000       0.534981        14.5576 
  87   0.0000       0.543712        14.7952 
  88   0.0000       0.550738        14.9863 
  89   0.0000       0.564147        15.3512 
  90   0.0000       0.576216        15.6796 
  91   0.0000       0.603360        16.4183 
  92   0.0000       0.626064        17.0361 
  93   0.0000       0.631630        17.1875 
  94   0.0000       0.636812        17.3285 
  95   0.0000       0.650246        17.6941 
  96   0.0000       0.655567        17.8389 
  97   0.0000       0.674396        18.3512 
  98   0.0000       0.683237        18.5918 
  99   0.0000       0.691785        18.8244 
 100   0.0000       0.700615        19.0647 
 101   0.0000       0.712630        19.3916 
 102   0.0000       0.724755        19.7216 
 103   0.0000       0.738562        20.0973 
 104   0.0000       0.745231        20.2788 
 105   0.0000       0.747392        20.3376 
 106   0.0000       0.751985        20.4626 
 107   0.0000       0.766730        20.8638 
 108   0.0000       0.772179        21.0121 
 109   0.0000       0.774628        21.0787 
 110   0.0000       0.785405        21.3720 
 111   0.0000       0.789822        21.4922 
 112   0.0000       0.800653        21.7869 
 113   0.0000       0.805804        21.9270 
 114   0.0000       0.811570        22.0839 
 115   0.0000       0.825121        22.4527 
 116   0.0000       0.834009        22.6945 
 117   0.0000       0.866838        23.5879 
 118   0.0000       0.872682        23.7469 
 119   0.0000       0.880347        23.9555 
 120   0.0000       0.897001        24.4086 
 121   0.0000       0.904317        24.6077 
 122   0.0000       0.905269        24.6336 
 123   0.0000       0.920087        25.0368 
 124   0.0000       0.956929        26.0394 
 125   0.0000       0.965119        26.2622 
 126   0.0000       0.974575        26.5195 
 127   0.0000       0.983578        26.7645 
 128   0.0000       0.991976        26.9930 
 129   0.0000       1.031292        28.0629 
 130   0.0000       1.046367        28.4731 
 131   0.0000       1.058978        28.8163 
 132   0.0000       1.075875        29.2761 
 133   0.0000       1.079273        29.3685 
 134   0.0000       1.103078        30.0163 
 135   0.0000       1.134011        30.8580 
 136   0.0000       1.180055        32.1109 
 137   0.0000       1.194644        32.5079 
 138   0.0000       1.205078        32.7918 
 139   0.0000       1.222003        33.2524 
 140   0.0000       1.241976        33.7959 
 141   0.0000       1.270932        34.5838 
 142   0.0000       1.283410        34.9234 
 143   0.0000       1.298773        35.3414 
 144   0.0000       1.315996        35.8101 
 145   0.0000       1.323103        36.0035 
 146   0.0000       1.339796        36.4577 
 147   0.0000       1.375059        37.4173 
 148   0.0000       1.397157        38.0186 
 149   0.0000       1.406336        38.2684 
 150   0.0000       1.414689        38.4957 
 151   0.0000       1.422707        38.7138 
 152   0.0000       1.462870        39.8067 
 153   0.0000       1.502723        40.8912 
 154   0.0000       1.530032        41.6343 
 155   0.0000       1.549244        42.1571 
 156   0.0000       1.566222        42.6191 
 157   0.0000       1.590756        43.2867 
 158   0.0000       1.629328        44.3363 
 159   0.0000       1.637661        44.5630 
 160   0.0000       1.652466        44.9659 
 161   0.0000       1.659660        45.1617 
 162   0.0000       1.699207        46.2378 
 163   0.0000       1.705739        46.4155 
 164   0.0000       1.722117        46.8612 
 165   0.0000       1.748645        47.5830 
 166   0.0000       1.778662        48.3998 
 167   0.0000       1.791533        48.7501 
 168   0.0000       1.808346        49.2076 
 169   0.0000       1.813477        49.3472 
 170   0.0000       1.837554        50.0024 
 171   0.0000       1.842736        50.1434 
 172   0.0000       1.853991        50.4497 
 173   0.0000       1.879360        51.1400 
 174   0.0000       1.890321        51.4382 
 175   0.0000       1.899473        51.6873 
 176   0.0000       1.912965        52.0544 
 177   0.0000       1.940401        52.8010 
 178   0.0000       1.950521        53.0764 
 179   0.0000       1.972623        53.6778 
 180   0.0000       1.984417        53.9987 
 181   0.0000       2.003865        54.5279 
 182   0.0000       2.033913        55.3456 
 183   0.0000       2.042691        55.5845 
 184   0.0000       2.062057        56.1114 
 185   0.0000       2.082704        56.6733 
 186   0.0000       2.098500        57.1031 
 187   0.0000       2.104662        57.2708 
 188   0.0000       2.115733        57.5720 
 189   0.0000       2.135705        58.1155 
 190   0.0000       2.168105        58.9971 
 191   0.0000       2.191512        59.6341 
 192   0.0000       2.215503        60.2869 
 193   0.0000       2.255952        61.3876 
 194   0.0000       2.272679        61.8428 
 195   0.0000       2.278853        62.0107 
 196   0.0000       2.297716        62.5240 
 197   0.0000       2.330077        63.4046 
 198   0.0000       2.339884        63.6715 
 199   0.0000       2.357014        64.1376 
 200   0.0000       2.385281        64.9068 
 201   0.0000       2.401000        65.3345 
 202   0.0000       2.408558        65.5402 
 203   0.0000       2.431607        66.1674 
 204   0.0000       2.452101        66.7250 
 205   0.0000       2.499944        68.0269 
 206   0.0000       2.538836        69.0852 
 207   0.0000       2.580747        70.2257 
 208   0.0000       2.602603        70.8204 
 209   0.0000       2.621358        71.3308 
 210   0.0000       2.662506        72.4505 
 211   0.0000       2.688598        73.1605 
 212   0.0000       2.717934        73.9587 
 213   0.0000       2.727145        74.2094 
 214   0.0000       2.734850        74.4190 
 215   0.0000       2.764617        75.2291 
 216   0.0000       2.805438        76.3399 
 217   0.0000       2.812762        76.5392 
 218   0.0000       2.888475        78.5994 
 219   0.0000       2.912390        79.2501 
 220   0.0000       2.960712        80.5651 
 221   0.0000       2.975282        80.9616 
 222   0.0000       2.981851        81.1403 
 223   0.0000       3.010277        81.9138 
 224   0.0000       3.044733        82.8514 
 225   0.0000       3.048581        82.9561 
 226   0.0000       3.073913        83.6454 
 227   0.0000       3.123304        84.9894 
 228   0.0000       3.129893        85.1687 
 229   0.0000       3.136578        85.3506 
 230   0.0000       3.181891        86.5837 
 231   0.0000       3.206173        87.2444 
 232   0.0000       3.307270        89.9954 
 233   0.0000       3.315490        90.2191 
 234   0.0000       3.397465        92.4497 
 235   0.0000       3.530215        96.0620 
 236   0.0000       3.636283        98.9483 
 237   0.0000       3.730931       101.5238 
 238   0.0000       3.745828       101.9292 
 239   0.0000       3.849244       104.7433 

                    ********************************
                    * MULLIKEN POPULATION ANALYSIS *
                    ********************************

-----------------------
MULLIKEN ATOMIC CHARGES
-----------------------
   0 C :    0.066611
   1 C :   -0.130473
   2 C :    0.058787
   3 C :   -0.139173
   4 C :    0.025130
   5 C :   -0.014348
   6 C :   -0.133264
   7 C :    0.097231
   8 H :    0.059182
   9 C :    0.151912
  10 O :   -0.224045
  11 O :   -0.197128
  12 H :    0.203381
  13 H :    0.057852
  14 H :    0.018054
  15 H :    0.027017
  16 C :   -0.112586
  17 N :    0.075358
  18 Cl:   -0.049789
  19 H :    0.052063
  20 H :    0.042696
  21 H :    0.065533
Sum of atomic charges:   -0.0000000

--------------------------------
MULLIKEN REDUCED ORBITAL CHARGES
--------------------------------
  0 C s       :     2.898557  s :     2.898557
      pz      :     1.032335  p :     3.007965
      px      :     1.038809
      py      :     0.936821
      dz2     :     0.006127  d :     0.026868
      dxz     :     0.004782
      dyz     :     0.003912
      dx2y2   :     0.005851
      dxy     :     0.006196
  1 C s       :     3.121989  s :     3.121989
      pz      :     0.972025  p :     2.965022
      px      :     0.932018
      py      :     1.060978
      dz2     :     0.003700  d :     0.043462
      dxz     :     0.006495
      dyz     :     0.007540
      dx2y2   :     0.013108
      dxy     :     0.012618
  2 C s       :     2.992701  s :     2.992701
      pz      :     1.033865  p :     2.895513
      px      :     0.962022
      py      :     0.899626
      dz2     :     0.004487  d :     0.053000
      dxz     :     0.007844
      dyz     :     0.008392
      dx2y2   :     0.014594
      dxy     :     0.017682
  3 C s       :     3.060789  s :     3.060789
      pz      :     1.061309  p :     3.033672
      px      :     0.978136
      py      :     0.994227
      dz2     :     0.003779  d :     0.044712
      dxz     :     0.005847
      dyz     :     0.007879
      dx2y2   :     0.014855
      dxy     :     0.012351
  4 C s       :     3.217581  s :     3.217581
      pz      :     0.954291  p :     2.721209
      px      :     0.921033
      py      :     0.845885
      dz2     :     0.003408  d :     0.036080
      dxz     :     0.006688
      dyz     :     0.003700
      dx2y2   :     0.010499
      dxy     :     0.011786
  5 C s       :     3.200479  s :     3.200479
      pz      :     0.980463  p :     2.778680
      px      :     0.876815
      py      :     0.921402
      dz2     :     0.002928  d :     0.035190
      dxz     :     0.005038
      dyz     :     0.004894
      dx2y2   :     0.010284
      dxy     :     0.012045
  6 C s       :     3.083686  s :     3.083686
      pz      :     0.994579  p :     3.005595
      px      :     1.015205
      py      :     0.995812
      dz2     :     0.003400  d :     0.043983
      dxz     :     0.006272
      dyz     :     0.007619
      dx2y2   :     0.013524
      dxy     :     0.013167
  7 C s       :     2.947836  s :     2.947836
      pz      :     0.989431  p :     2.923425
      px      :     0.943029
      py      :     0.990965
      dz2     :     0.005304  d :     0.031509
      dxz     :     0.008575
      dyz     :     0.005886
      dx2y2   :     0.007379
      dxy     :     0.004365
  8 H s       :     0.917872  s :     0.917872
      pz      :     0.006828  p :     0.022946
      px      :     0.003936
      py      :     0.012183
  9 C s       :     3.061694  s :     3.061694
      pz      :     0.967742  p :     2.644632
      px      :     0.829126
      py      :     0.847764
      dz2     :     0.028867  d :     0.141761
      dxz     :     0.011774
      dyz     :     0.036909
      dx2y2   :     0.029417
      dxy     :     0.034795
 10 O s       :     3.733621  s :     3.733621
      pz      :     1.566676  p :     4.471281
      px      :     1.475147
      py      :     1.429458
      dz2     :     0.002850  d :     0.019143
      dxz     :     0.001485
      dyz     :     0.006069
      dx2y2   :     0.004186
      dxy     :     0.004553
 11 O s       :     3.666833  s :     3.666833
      pz      :     1.381371  p :     4.516819
      px      :     1.638990
      py      :     1.496459
      dz2     :     0.002941  d :     0.013476
      dxz     :     0.001564
      dyz     :     0.002562
      dx2y2   :     0.003457
      dxy     :     0.002952
 12 H s       :     0.730445  s :     0.730445
      pz      :     0.032980  p :     0.066175
      px      :     0.020417
      py      :     0.012777
 13 H s       :     0.919172  s :     0.919172
      pz      :     0.006821  p :     0.022976
      px      :     0.005392
      py      :     0.010763
 14 H s       :     0.958373  s :     0.958373
      pz      :     0.004837  p :     0.023573
      px      :     0.008500
      py      :     0.010236
 15 H s       :     0.949540  s :     0.949540
      pz      :     0.004552  p :     0.023444
      px      :     0.004633
      py      :     0.014258
 16 C s       :     3.086530  s :     3.086530
      pz      :     0.958980  p :     2.978235
      px      :     1.045974
      py      :     0.973282
      dz2     :     0.005076  d :     0.047821
      dxz     :     0.016185
      dyz     :     0.001637
      dx2y2   :     0.010982
      dxy     :     0.013941
 17 N s       :     3.524497  s :     3.524497
      pz      :     1.060393  p :     3.366291
      px      :     1.263083
      py      :     1.042815
      dz2     :     0.003730  d :     0.033854
      dxz     :     0.009960
      dyz     :     0.001043
      dx2y2   :     0.008997
      dxy     :     0.010125
 18 Cls       :     5.937695  s :     5.937695
      pz      :     3.896327  p :    11.073605
      px      :     3.607466
      py      :     3.569813
      dz2     :     0.005488  d :     0.038489
      dxz     :     0.004554
      dyz     :     0.005530
      dx2y2   :     0.005232
      dxy     :     0.017684
 19 H s       :     0.923256  s :     0.923256
      pz      :     0.013790  p :     0.024681
      px      :     0.005786
      py      :     0.005104
 20 H s       :     0.932200  s :     0.932200
      pz      :     0.006337  p :     0.025103
      px      :     0.010624
      py      :     0.008143
 21 H s       :     0.908364  s :     0.908364
      pz      :     0.008689  p :     0.026103
      px      :     0.013128
      py      :     0.004286


                     *******************************
                     * LOEWDIN POPULATION ANALYSIS *
                     *******************************

----------------------
LOEWDIN ATOMIC CHARGES
----------------------
   0 C :   -0.058274
   1 C :   -0.034181
   2 C :   -0.093104
   3 C :   -0.095941
   4 C :    0.010248
   5 C :   -0.021786
   6 C :   -0.009847
   7 C :   -0.043799
   8 H :    0.049402
   9 C :    0.093026
  10 O :   -0.178657
  11 O :   -0.036549
  12 H :    0.106081
  13 H :    0.047913
  14 H :    0.036816
  15 H :    0.045264
  16 C :   -0.033456
  17 N :   -0.054383
  18 Cl:    0.162262
  19 H :    0.041320
  20 H :    0.025671
  21 H :    0.041975

-------------------------------
LOEWDIN REDUCED ORBITAL CHARGES
-------------------------------
  0 C s       :     2.818241  s :     2.818241
      pz      :     1.074102  p :     3.168662
      px      :     1.084874
      py      :     1.009685
      dz2     :     0.016366  d :     0.071371
      dxz     :     0.012793
      dyz     :     0.009522
      dx2y2   :     0.015816
      dxy     :     0.016875
  1 C s       :     2.848876  s :     2.848876
      pz      :     0.961837  p :     3.075874
      px      :     1.054739
      py      :     1.059298
      dz2     :     0.008456  d :     0.109432
      dxz     :     0.014212
      dyz     :     0.014322
      dx2y2   :     0.037624
      dxy     :     0.034818
  2 C s       :     2.892719  s :     2.892719
      pz      :     1.032030  p :     3.075478
      px      :     1.037899
      py      :     1.005549
      dz2     :     0.009482  d :     0.124907
      dxz     :     0.016079
      dyz     :     0.017047
      dx2y2   :     0.039371
      dxy     :     0.042929
  3 C s       :     2.834397  s :     2.834397
      pz      :     1.030321  p :     3.144040
      px      :     1.031608
      py      :     1.082111
      dz2     :     0.009117  d :     0.117504
      dxz     :     0.013077
      dyz     :     0.016750
      dx2y2   :     0.043232
      dxy     :     0.035328
  4 C s       :     2.848194  s :     2.848194
      pz      :     0.954186  p :     3.048152
      px      :     1.052628
      py      :     1.041338
      dz2     :     0.007601  d :     0.093406
      dxz     :     0.014770
      dyz     :     0.007446
      dx2y2   :     0.030166
      dxy     :     0.033422
  5 C s       :     2.847859  s :     2.847859
      pz      :     0.978997  p :     3.080391
      px      :     1.052321
      py      :     1.049073
      dz2     :     0.006864  d :     0.093536
      dxz     :     0.010794
      dyz     :     0.010475
      dx2y2   :     0.030059
      dxy     :     0.035344
  6 C s       :     2.845165  s :     2.845165
      pz      :     0.961526  p :     3.054867
      px      :     1.013854
      py      :     1.079487
      dz2     :     0.007838  d :     0.109816
      dxz     :     0.012370
      dyz     :     0.015970
      dx2y2   :     0.037885
      dxy     :     0.035753
  7 C s       :     2.831617  s :     2.831617
      pz      :     1.033607  p :     3.128276
      px      :     1.020354
      py      :     1.074315
      dz2     :     0.013476  d :     0.083906
      dxz     :     0.022069
      dyz     :     0.017564
      dx2y2   :     0.020309
      dxy     :     0.010489
  8 H s       :     0.881367  s :     0.881367
      pz      :     0.020750  p :     0.069231
      px      :     0.013427
      py      :     0.035054
  9 C s       :     2.844998  s :     2.844998
      pz      :     0.971767  p :     2.758610
      px      :     0.824727
      py      :     0.962116
      dz2     :     0.062233  d :     0.303366
      dxz     :     0.023448
      dyz     :     0.079933
      dx2y2   :     0.068755
      dxy     :     0.068997
 10 O s       :     3.537459  s :     3.537459
      pz      :     1.599717  p :     4.608784
      px      :     1.473467
      py      :     1.535600
      dz2     :     0.004088  d :     0.032414
      dxz     :     0.002090
      dyz     :     0.011858
      dx2y2   :     0.008295
      dxy     :     0.006084
 11 O s       :     3.412395  s :     3.412395
      pz      :     1.431887  p :     4.597053
      px      :     1.620782
      py      :     1.544383
      dz2     :     0.006586  d :     0.027101
      dxz     :     0.004408
      dyz     :     0.004922
      dx2y2   :     0.006416
      dxy     :     0.004768
 12 H s       :     0.720915  s :     0.720915
      pz      :     0.084704  p :     0.173004
      px      :     0.054256
      py      :     0.034043
 13 H s       :     0.882803  s :     0.882803
      pz      :     0.021064  p :     0.069285
      px      :     0.016901
      py      :     0.031320
 14 H s       :     0.893471  s :     0.893471
      pz      :     0.015240  p :     0.069712
      px      :     0.024803
      py      :     0.029669
 15 H s       :     0.884828  s :     0.884828
      pz      :     0.014063  p :     0.069907
      px      :     0.014718
      py      :     0.041126
 16 C s       :     2.900503  s :     2.900503
      pz      :     0.945045  p :     3.018921
      px      :     1.137060
      py      :     0.936817
      dz2     :     0.012961  d :     0.114033
      dxz     :     0.035075
      dyz     :     0.003430
      dx2y2   :     0.031020
      dxy     :     0.031546
 17 N s       :     3.413676  s :     3.413676
      pz      :     1.079515  p :     3.584651
      px      :     1.438253
      py      :     1.066882
      dz2     :     0.006811  d :     0.056056
      dxz     :     0.014991
      dyz     :     0.001516
      dx2y2   :     0.017491
      dxy     :     0.015247
 18 Cls       :     5.744849  s :     5.744849
      pz      :     3.882517  p :    11.048586
      px      :     3.604169
      py      :     3.561900
      dz2     :     0.006209  d :     0.044302
      dxz     :     0.005052
      dyz     :     0.006197
      dx2y2   :     0.005638
      dxy     :     0.021207
 19 H s       :     0.890691  s :     0.890691
      pz      :     0.037781  p :     0.067989
      px      :     0.015259
      py      :     0.014950
 20 H s       :     0.902113  s :     0.902113
      pz      :     0.017210  p :     0.072216
      px      :     0.030708
      py      :     0.024298
 21 H s       :     0.884952  s :     0.884952
      pz      :     0.023265  p :     0.073073
      px      :     0.036526
      py      :     0.013282


                      *****************************
                      * MAYER POPULATION ANALYSIS *
                      *****************************

  NA   - Mulliken gross atomic population
  ZA   - Total nuclear charge
  QA   - Mulliken gross atomic charge
  VA   - Mayer's total valence
  BVA  - Mayer's bonded valence
  FA   - Mayer's free valence

  ATOM       NA         ZA         QA         VA         BVA        FA
  0 C      5.9334     6.0000     0.0666     3.9100     3.9100    -0.0000
  1 C      6.1305     6.0000    -0.1305     4.1138     4.1138    -0.0000
  2 C      5.9412     6.0000     0.0588     4.0262     4.0262    -0.0000
  3 C      6.1392     6.0000    -0.1392     4.0249     4.0249    -0.0000
  4 C      5.9749     6.0000     0.0251     3.8803     3.8803    -0.0000
  5 C      6.0143     6.0000    -0.0143     3.8515     3.8515     0.0000
  6 C      6.1333     6.0000    -0.1333     4.0081     4.0081     0.0000
  7 C      5.9028     6.0000     0.0972     3.8359     3.8359    -0.0000
  8 H      0.9408     1.0000     0.0592     1.0027     1.0027     0.0000
  9 C      5.8481     6.0000     0.1519     4.3761     4.3761    -0.0000
 10 O      8.2240     8.0000    -0.2240     2.2489     2.2489    -0.0000
 11 O      8.1971     8.0000    -0.1971     2.2450     2.2450     0.0000
 12 H      0.7966     1.0000     0.2034     1.0137     1.0137     0.0000
 13 H      0.9421     1.0000     0.0579     0.9967     0.9967     0.0000
 14 H      0.9819     1.0000     0.0181     0.9992     0.9992     0.0000
 15 H      0.9730     1.0000     0.0270     0.9930     0.9930     0.0000
 16 C      6.1126     6.0000    -0.1126     4.0979     4.0979    -0.0000
 17 N      6.9246     7.0000     0.0754     3.1458     3.1458    -0.0000
 18 Cl    17.0498    17.0000    -0.0498     1.2220     1.2220    -0.0000
 19 H      0.9479     1.0000     0.0521     0.9930     0.9930    -0.0000
 20 H      0.9573     1.0000     0.0427     1.0255     1.0255     0.0000
 21 H      0.9345     1.0000     0.0655     1.0385     1.0385     0.0000

  Mayer bond orders larger than 0.100000
B(  0-C ,  1-C ) :   1.0699 B(  0-C , 19-H ) :   0.9462 B(  0-C , 20-H ) :   0.9393 
B(  0-C , 21-H ) :   0.9328 B(  1-C ,  2-C ) :   1.4292 B(  1-C ,  6-C ) :   1.4055 
B(  2-C ,  3-C ) :   1.4049 B(  2-C , 18-Cl) :   1.0762 B(  3-C ,  4-C ) :   1.3888 
B(  3-C , 16-C ) :   1.0738 B(  4-C ,  5-C ) :   1.3764 B(  4-C , 15-H ) :   1.0026 
B(  5-C ,  6-C ) :   1.3808 B(  5-C , 14-H ) :   0.9963 B(  6-C ,  7-C ) :   1.0623 
B(  7-C ,  8-H ) :   0.9181 B(  7-C ,  9-C ) :   0.9587 B(  7-C , 13-H ) :   0.9245 
B(  9-C , 10-O ) :   2.0842 B(  9-C , 11-O ) :   1.2479 B( 11-O , 12-H ) :   0.9423 
B( 16-C , 17-N ) :   3.0326 

-------
TIMINGS
-------

Total SCF time: 0 days 0 hours 3 min 29 sec 

Total time                  ....     209.488 sec
Sum of individual times     ....     209.267 sec  ( 99.9%)

Fock matrix formation       ....     206.755 sec  ( 98.7%)
  XC integration            ....       7.822 sec  (  3.8% of F)
    Basis function eval.    ....       2.288 sec  ( 29.3% of XC)
    Density eval.           ....       1.459 sec  ( 18.7% of XC)
    XC-Functional eval.     ....       1.853 sec  ( 23.7% of XC)
    XC-Potential eval.      ....       2.009 sec  ( 25.7% of XC)
Diagonalization             ....       0.049 sec  (  0.0%)
Density matrix formation    ....       0.016 sec  (  0.0%)
Population analysis         ....       0.007 sec  (  0.0%)
Initial guess               ....       0.635 sec  (  0.3%)
Orbital Transformation      ....       0.000 sec  (  0.0%)
Orbital Orthonormalization  ....       0.000 sec  (  0.0%)
DIIS solution               ....       0.019 sec  (  0.0%)
SOSCF solution              ....       0.037 sec  (  0.0%)
Grid generation             ....       1.749 sec  (  0.8%)


-------------------------------------------------------------------------------
                          DFT DISPERSION CORRECTION                            
                                                                               
                              DFTD3 V3.1  Rev 1                                
                              USING zero damping                               
-------------------------------------------------------------------------------
The omegaB97X-D3 functional is recognized. Fit by Chai et al.
Active option DFTDOPT                   ...         3   

molecular C6(AA) [au] = 7017.278526 


            DFT-D V3
 parameters
 s6 scaling factor         :     1.0000 
 rs6 scaling factor        :     1.2810 
 s8 scaling factor         :     1.0000 
 rs8 scaling factor        :     1.0940 
 Damping factor alpha6     :    14.0000 
 Damping factor alpha8     :    16.0000 
 ad hoc parameters k1-k3   :    16.0000     1.3333    -4.0000 

 Edisp/kcal,au: -5.983287972017  -0.009534975297 
 E6   /kcal   :  -2.527533639 
 E8   /kcal   :  -3.455754333 
 % E8         :  57.756777700 

-------------------------   ----------------
Dispersion correction           -0.009534975
-------------------------   ----------------


-------------------------   --------------------
FINAL SINGLE POINT ENERGY     -1050.548161852812
-------------------------   --------------------

------------------------------------------------------------------------------
                         ORCA SCF GRADIENT CALCULATION
------------------------------------------------------------------------------

Gradient of the Kohn-Sham DFT energy:
Kohn-Sham wavefunction type      ... RKS
Hartree-Fock exchange scaling    ...    0.196
Number of operators              ...    1
Number of atoms                  ...   22
Basis set dimensions             ...  240
Integral neglect threshold       ... 2.5e-11
Integral primitive cutoff        ... 2.5e-12

Nuclear repulsion gradient       ... done
One Electron Gradient            ... done
Pre-screening matrix             ... done
Starting the two electron gradient:
Two electron gradient done
Exchange-correlation gradient    ... done
Dispersion correction            ... done

------------------
CARTESIAN GRADIENT
------------------

   1   C   :   -0.001485199   -0.002456523    0.000986789
   2   C   :    0.000314483    0.004618007    0.000347777
   3   C   :   -0.004155229    0.000235646    0.001282415
   4   C   :    0.011477043    0.000054825   -0.002695540
   5   C   :   -0.000578939    0.004357045    0.000508834
   6   C   :   -0.001057660    0.001842249    0.000278257
   7   C   :    0.000264067   -0.002831099   -0.004134598
   8   C   :   -0.001225109   -0.000690190    0.010440069
   9   H   :    0.002601702    0.004217438   -0.002656559
  10   C   :    0.005937787    0.001582969    0.000426045
  11   O   :    0.000273422    0.003194258    0.001739745
  12   O   :    0.000743652   -0.008727224   -0.000855278
  13   H   :   -0.002641775    0.005382635   -0.002371175
  14   H   :    0.002048807   -0.002963816   -0.004430284
  15   H   :    0.006078221   -0.007008998   -0.001775307
  16   H   :   -0.002953225   -0.008192402    0.000490691
  17   C   :    0.005900395    0.001844578   -0.001494064
  18   N   :   -0.025981688   -0.007006943    0.006218369
  19   Cl  :   -0.000539660    0.002141197    0.000003636
  20   H   :    0.001979983    0.003069705   -0.007201515
  21   H   :   -0.003515620    0.005563928    0.001652781
  22   H   :    0.006514545    0.001772717    0.003238911

Difference to translation invariance:
           :    0.0000000000    0.0000000000    0.0000000000

Norm of the cartesian gradient     ...    0.0415246589
RMS gradient                       ...    0.0051113322
MAX gradient                       ...    0.0259816876

-------
TIMINGS
-------

Total SCF gradient time            ...       72.493 sec

One electron gradient       ....       0.231 sec  (  0.3%)
Prescreening matrices       ....       0.133 sec  (  0.2%)
Two electron gradient       ....      66.070 sec  ( 91.1%)
XC gradient                 ....       5.911 sec  (  8.2%)
------------------------------------------------------------------------------
                         ORCA GEOMETRY RELAXATION STEP
------------------------------------------------------------------------------

Reading the OPT-File                    .... done
Getting information on internals        .... done
Copying old internal coords+grads       .... done
Making the new internal coordinates     .... (new redundants).... done
Validating the new internal coordinates .... (new redundants).... done
Calculating the B-matrix                .... done
Calculating the G,G- and P matrices     .... done
Transforming gradient to internals      .... done
Projecting the internal gradient        .... done
Number of atoms                         ....  22
Number of internal coordinates          .... 102
Current Energy                          .... -1050.548161853 Eh
Current gradient norm                   ....     0.041524659 Eh/bohr
Maximum allowed component of the step   ....  0.300
Current trust radius                    ....  0.300
Evaluating the initial hessian          ....  (Almloef) done
Projecting the Hessian                  .... done
Forming the augmented Hessian           .... done
Diagonalizing the augmented Hessian     .... done
Last element of RFO vector              ....  0.990125657
Lowest eigenvalues of augmented Hessian:
 -0.004338541  0.011578790  0.012169121  0.013247661  0.017275885
Length of the computed step             ....  0.141580696
The final length of the internal step   ....  0.141580696
Converting the step to cartesian space:
 Initial RMS(Int)=    0.0140185778
Transforming coordinates:
 Iter   0:  RMS(Cart)=    0.0404132634 RMS(Int)=    0.6221278378
 Iter   1:  RMS(Cart)=    0.0004956247 RMS(Int)=    0.0002595542
 Iter   2:  RMS(Cart)=    0.0000115897 RMS(Int)=    0.0000061881
 Iter   3:  RMS(Cart)=    0.0000007546 RMS(Int)=    0.0000005060
 Iter   4:  RMS(Cart)=    0.0000002730 RMS(Int)=    0.0000002244
 Iter   5:  RMS(Cart)=    0.0000001387 RMS(Int)=    0.0000001137
 Iter   6:  RMS(Cart)=    0.0000000703 RMS(Int)=    0.0000000576
done
Storing new coordinates                 .... done

                                .--------------------.
          ----------------------|Geometry convergence|-------------------------
          Item                value                   Tolerance       Converged
          ---------------------------------------------------------------------
          RMS gradient        0.0048616476            0.0001000000      NO
          MAX gradient        0.0276016799            0.0003000000      NO
          RMS step            0.0140185778            0.0020000000      NO
          MAX step            0.0412651865            0.0040000000      NO
          ........................................................
          Max(Bonds)      0.0195      Max(Angles)    1.59
          Max(Dihed)        2.36      Max(Improp)    0.00
          ---------------------------------------------------------------------

The optimization has not yet converged - more geometry cycles are needed


    ---------------------------------------------------------------------------
                         Redundant Internal Coordinates
                            (Angstroem and degrees)

        Definition                    Value    dE/dq     Step     New-Value
    ----------------------------------------------------------------------------
     1. B(C   1,C   0)                1.4960 -0.008717  0.0108    1.5068   
     2. B(C   2,C   1)                1.3930 -0.010651  0.0091    1.4021   
     3. B(C   3,C   2)                1.3984 -0.009099  0.0079    1.4063   
     4. B(C   4,C   3)                1.3934 -0.004814  0.0040    1.3975   
     5. B(C   5,C   4)                1.3783 -0.007731  0.0061    1.3845   
     6. B(C   6,C   5)                1.3903 -0.006585  0.0055    1.3959   
     7. B(C   6,C   1)                1.4004 -0.009039  0.0080    1.4083   
     8. B(C   7,C   6)                1.5090 -0.007231  0.0094    1.5183   
     9. B(H   8,C   7)                1.0881 -0.005241  0.0076    1.0957   
    10. B(C   9,C   7)                1.5151 -0.001355  0.0018    1.5169   
    11. B(O  10,C   9)                1.2002 -0.003624  0.0017    1.2019   
    12. B(O  11,C   9)                1.3347 -0.001386  0.0011    1.3358   
    13. B(H  12,O  11)                0.9705  0.002889 -0.0030    0.9674   
    14. B(H  13,C   7)                1.0892 -0.005326  0.0077    1.0969   
    15. B(H  14,C   5)                1.0794 -0.009440  0.0132    1.0926   
    16. B(H  15,C   4)                1.0790 -0.008719  0.0122    1.0912   
    17. B(C  16,C   3)                1.4142 -0.021246  0.0195    1.4337   
    18. B(N  17,C  16)                1.1459 -0.027602  0.0106    1.1566   
    19. B(Cl 18,C   2)                1.7318 -0.001917  0.0025    1.7343   
    20. B(H  19,C   0)                1.0901 -0.007992  0.0116    1.1017   
    21. B(H  20,C   0)                1.0850 -0.006517  0.0093    1.0943   
    22. B(H  21,C   0)                1.0875 -0.007379  0.0106    1.0981   
    23. A(C   1,C   0,H  19)          110.23 -0.000841    0.12    110.35   
    24. A(C   1,C   0,H  21)          110.40 -0.000993    0.19    110.59   
    25. A(H  19,C   0,H  20)          108.22  0.001639   -0.30    107.92   
    26. A(H  19,C   0,H  21)          108.41  0.001430   -0.35    108.07   
    27. A(H  20,C   0,H  21)          108.83  0.001236   -0.13    108.69   
    28. A(C   1,C   0,H  20)          110.68 -0.002320    0.45    111.13   
    29. A(C   0,C   1,C   6)          120.79  0.001265   -0.20    120.60   
    30. A(C   2,C   1,C   6)          117.84  0.001847   -0.22    117.62   
    31. A(C   0,C   1,C   2)          121.37 -0.003110    0.42    121.79   
    32. A(C   1,C   2,Cl 18)          121.26  0.002512   -0.35    120.91   
    33. A(C   3,C   2,Cl 18)          117.37 -0.001100    0.14    117.51   
    34. A(C   1,C   2,C   3)          121.38 -0.001412    0.20    121.58   
    35. A(C   4,C   3,C  16)          119.63  0.001420   -0.18    119.45   
    36. A(C   2,C   3,C   4)          119.74  0.001728   -0.24    119.50   
    37. A(C   2,C   3,C  16)          120.63 -0.003149    0.42    121.05   
    38. A(C   5,C   4,H  15)          121.13  0.000732   -0.08    121.05   
    39. A(C   3,C   4,H  15)          119.52  0.000961   -0.12    119.39   
    40. A(C   3,C   4,C   5)          119.35 -0.001693    0.21    119.56   
    41. A(C   4,C   5,C   6)          120.91 -0.000535    0.06    120.96   
    42. A(C   6,C   5,H  14)          119.38  0.000354   -0.04    119.34   
    43. A(C   4,C   5,H  14)          119.71  0.000181   -0.02    119.70   
    44. A(C   5,C   6,C   7)          118.46  0.000097   -0.02    118.44   
    45. A(C   1,C   6,C   7)          120.74 -0.000154    0.01    120.75   
    46. A(C   1,C   6,C   5)          120.78  0.000060    0.00    120.78   
    47. A(H   8,C   7,C   9)          109.17  0.003073   -0.49    108.69   
    48. A(C   6,C   7,C   9)          107.49 -0.006896    1.35    108.84   
    49. A(C   6,C   7,H   8)          111.29  0.000257    0.16    111.45   
    50. A(C   9,C   7,H  13)          108.54  0.001206   -0.10    108.44   
    51. A(H   8,C   7,H  13)          110.41  0.000300   -0.67    109.75   
    52. A(C   6,C   7,H  13)          109.85  0.001922   -0.21    109.63   
    53. A(C   7,C   9,O  11)          111.41  0.000923   -0.14    111.27   
    54. A(C   7,C   9,O  10)          125.53 -0.000139    0.01    125.54   
    55. A(O  10,C   9,O  11)          123.04 -0.000767    0.08    123.12   
    56. A(C   9,O  11,H  12)          110.93  0.010509   -1.59    109.34   
    57. L(C   3,C  16,N  17,C   4, 2) 179.97 -0.000042    0.00    179.98   
    58. L(C   3,C  16,N  17,C   4, 1) 178.86  0.002116   -0.24    178.61   
    59. D(C   6,C   1,C   0,H  20)    171.08 -0.000250    0.08    171.16   
    60. D(C   2,C   1,C   0,H  19)    110.50  0.000052   -0.61    109.89   
    61. D(C   2,C   1,C   0,H  21)   -129.75  0.000659   -0.84   -130.59   
    62. D(C   6,C   1,C   0,H  19)    -69.23 -0.000234    0.07    -69.16   
    63. D(C   6,C   1,C   0,H  21)     50.52  0.000373   -0.17     50.35   
    64. D(C   2,C   1,C   0,H  20)     -9.19  0.000036   -0.59     -9.79   
    65. D(C   3,C   2,C   1,C   0)    179.08 -0.000410    0.85    179.93   
    66. D(Cl 18,C   2,C   1,C   6)    178.90  0.000122   -0.30    178.61   
    67. D(C   3,C   2,C   1,C   6)     -1.19 -0.000133    0.20     -0.99   
    68. D(Cl 18,C   2,C   1,C   0)     -0.83 -0.000154    0.36     -0.48   
    69. D(C  16,C   3,C   2,C   1)   -179.72  0.000058   -0.12   -179.84   
    70. D(C   4,C   3,C   2,Cl 18)   -179.91 -0.000335    0.65   -179.27   
    71. D(C  16,C   3,C   2,Cl 18)      0.19 -0.000185    0.36      0.55   
    72. D(C   4,C   3,C   2,C   1)      0.18 -0.000092    0.17      0.34   
    73. D(C   5,C   4,C   3,C   2)      0.51  0.000098   -0.19      0.32   
    74. D(H  15,C   4,C   3,C  16)      0.22 -0.000012    0.03      0.25   
    75. D(C   5,C   4,C   3,C  16)   -179.59 -0.000056    0.09   -179.50   
    76. D(H  15,C   4,C   3,C   2)   -179.68  0.000141   -0.25   -179.93   
    77. D(H  14,C   5,C   4,H  15)      0.22 -0.000087    0.17      0.38   
    78. D(C   6,C   5,C   4,H  15)   -179.96  0.000054   -0.09   -180.05   
    79. D(C   6,C   5,C   4,C   3)     -0.15  0.000098   -0.15     -0.30   
    80. D(H  14,C   5,C   4,C   3)   -179.97 -0.000042    0.11   -179.87   
    81. D(C   7,C   6,C   5,H  14)      0.60 -0.000278    0.57      1.17   
    82. D(C   7,C   6,C   5,C   4)   -179.23 -0.000418    0.83   -178.39   
    83. D(C   1,C   6,C   5,H  14)    178.92 -0.000150    0.27    179.19   
    84. D(C   1,C   6,C   5,C   4)     -0.90 -0.000290    0.53     -0.38   
    85. D(C   7,C   6,C   1,C   2)    179.83  0.000475   -0.86    178.97   
    86. D(C   7,C   6,C   1,C   0)     -0.43  0.000738   -1.50     -1.94   
    87. D(C   5,C   6,C   1,C   2)      1.55  0.000340   -0.54      1.00   
    88. D(C   5,C   6,C   1,C   0)   -178.72  0.000603   -1.19   -179.91   
    89. D(H   8,C   7,C   6,C   1)     33.55 -0.000335   -1.18     32.37   
    90. D(H  13,C   7,C   6,C   5)    -25.54  0.001684   -2.36    -27.90   
    91. D(H  13,C   7,C   6,C   1)    156.14  0.001552   -2.06    154.08   
    92. D(C   9,C   7,C   6,C   5)     92.38  0.000211   -1.83     90.55   
    93. D(C   9,C   7,C   6,C   1)    -85.95  0.000080   -1.52    -87.47   
    94. D(H   8,C   7,C   6,C   5)   -148.13 -0.000204   -1.48   -149.61   
[...]
  17 N :    0.065101
  18 Cl:   -0.050236
  19 H :    0.065542
  20 H :    0.050909
  21 H :    0.060825
Sum of atomic charges:    0.0000000

--------------------------------
MULLIKEN REDUCED ORBITAL CHARGES
--------------------------------
  0 C s       :     2.936026  s :     2.936026
      pz      :     1.038989  p :     3.000844
      px      :     1.031295
      py      :     0.930559
      dz2     :     0.005741  d :     0.026300
      dxz     :     0.003195
      dyz     :     0.005624
      dx2y2   :     0.006941
      dxy     :     0.004799
  1 C s       :     3.121742  s :     3.121742
      pz      :     0.972363  p :     2.957735
      px      :     0.939353
      py      :     1.046019
      dz2     :     0.003564  d :     0.042201
      dxz     :     0.006117
      dyz     :     0.007434
      dx2y2   :     0.012980
      dxy     :     0.012106
  2 C s       :     3.005268  s :     3.005268
      pz      :     1.034336  p :     2.885884
      px      :     0.954804
      py      :     0.896744
      dz2     :     0.004322  d :     0.052044
      dxz     :     0.007640
      dyz     :     0.008237
      dx2y2   :     0.014360
      dxy     :     0.017485
  3 C s       :     3.058632  s :     3.058632
      pz      :     1.061769  p :     3.031090
      px      :     0.976320
      py      :     0.993001
      dz2     :     0.003688  d :     0.043469
      dxz     :     0.005528
      dyz     :     0.007701
      dx2y2   :     0.014464
      dxy     :     0.012088
  4 C s       :     3.217963  s :     3.217963
      pz      :     0.953917  p :     2.727945
      px      :     0.918871
      py      :     0.855157
      dz2     :     0.003336  d :     0.035392
      dxz     :     0.006611
      dyz     :     0.003629
      dx2y2   :     0.010201
      dxy     :     0.011616
  5 C s       :     3.199834  s :     3.199834
      pz      :     0.979649  p :     2.782405
      px      :     0.880528
      py      :     0.922228
      dz2     :     0.002852  d :     0.034415
      dxz     :     0.004977
      dyz     :     0.004741
      dx2y2   :     0.010188
      dxy     :     0.011656
  6 C s       :     3.088928  s :     3.088928
      pz      :     0.989813  p :     2.985546
      px      :     1.007942
      py      :     0.987792
      dz2     :     0.003334  d :     0.042795
      dxz     :     0.005918
      dyz     :     0.007443
      dx2y2   :     0.013152
      dxy     :     0.012948
  7 C s       :     2.972841  s :     2.972841
      pz      :     0.997908  p :     2.934124
      px      :     0.935789
      py      :     1.000426
      dz2     :     0.004574  d :     0.031083
      dxz     :     0.008680
      dyz     :     0.006135
      dx2y2   :     0.007351
      dxy     :     0.004344
  8 H s       :     0.911989  s :     0.911989
      pz      :     0.006988  p :     0.022399
      px      :     0.003648
      py      :     0.011763
  9 C s       :     3.064587  s :     3.064587
      pz      :     0.943666  p :     2.642841
      px      :     0.846868
      py      :     0.852306
      dz2     :     0.023077  d :     0.141028
      dxz     :     0.012253
      dyz     :     0.041246
      dx2y2   :     0.032446
      dxy     :     0.032006
 10 O s       :     3.735517  s :     3.735517
      pz      :     1.605565  p :     4.468758
      px      :     1.447312
      py      :     1.415880
      dz2     :     0.002454  d :     0.019074
      dxz     :     0.001176
      dyz     :     0.005155
      dx2y2   :     0.004796
      dxy     :     0.005492
 11 O s       :     3.672320  s :     3.672320
      pz      :     1.350790  p :     4.506070
      px      :     1.653687
      py      :     1.501593
      dz2     :     0.001975  d :     0.014065
      dxz     :     0.001837
      dyz     :     0.003766
      dx2y2   :     0.003721
      dxy     :     0.002766
 12 H s       :     0.733429  s :     0.733429
      pz      :     0.031791  p :     0.066989
      px      :     0.021654
      py      :     0.013544
 13 H s       :     0.912638  s :     0.912638
      pz      :     0.006916  p :     0.022793
      px      :     0.005208
      py      :     0.010668
 14 H s       :     0.950332  s :     0.950332
      pz      :     0.004664  p :     0.022948
      px      :     0.008200
      py      :     0.010084
 15 H s       :     0.941028  s :     0.941028
      pz      :     0.004361  p :     0.022898
      px      :     0.004486
      py      :     0.014051
 16 C s       :     3.094912  s :     3.094912
      pz      :     0.955858  p :     2.964780
      px      :     1.038628
      py      :     0.970294
      dz2     :     0.004748  d :     0.046243
      dxz     :     0.015615
      dyz     :     0.001645
      dx2y2   :     0.011021
      dxy     :     0.013213
 17 N s       :     3.540336  s :     3.540336
      pz      :     1.060291  p :     3.361530
      px      :     1.256364
      py      :     1.044875
      dz2     :     0.003562  d :     0.033034
      dxz     :     0.009642
      dyz     :     0.001072
      dx2y2   :     0.008899
      dxy     :     0.009858
 18 Cls       :     5.938422  s :     5.938422
      pz      :     3.899770  p :    11.073698
      px      :     3.617199
      py      :     3.556729
      dz2     :     0.005479  d :     0.038116
      dxz     :     0.004304
      dyz     :     0.005499
      dx2y2   :     0.005275
      dxy     :     0.017559
 19 H s       :     0.910851  s :     0.910851
      pz      :     0.013064  p :     0.023607
      px      :     0.005118
      py      :     0.005425
 20 H s       :     0.924168  s :     0.924168
      pz      :     0.008487  p :     0.024924
      px      :     0.008760
      py      :     0.007676
 21 H s       :     0.914175  s :     0.914175
      pz      :     0.006138  p :     0.025000
      px      :     0.014854
      py      :     0.004008


                     *******************************
                     * LOEWDIN POPULATION ANALYSIS *
                     *******************************

----------------------
LOEWDIN ATOMIC CHARGES
----------------------
   0 C :   -0.062217
   1 C :   -0.036020
   2 C :   -0.093614
   3 C :   -0.093589
   4 C :    0.007127
   5 C :   -0.022878
   6 C :   -0.010512
   7 C :   -0.050389
   8 H :    0.051048
   9 C :    0.091811
  10 O :   -0.179159
  11 O :   -0.036110
  12 H :    0.103059
  13 H :    0.052310
  14 H :    0.040115
  15 H :    0.048549
  16 C :   -0.028909
  17 N :   -0.056853
  18 Cl:    0.157404
  19 H :    0.047241
  20 H :    0.032129
  21 H :    0.039459

-------------------------------
LOEWDIN REDUCED ORBITAL CHARGES
-------------------------------
  0 C s       :     2.828338  s :     2.828338
      pz      :     1.077491  p :     3.164559
      px      :     1.081356
      py      :     1.005711
      dz2     :     0.015180  d :     0.069320
      dxz     :     0.008180
      dyz     :     0.014277
      dx2y2   :     0.018823
      dxy     :     0.012860
  1 C s       :     2.855863  s :     2.855863
      pz      :     0.964040  p :     3.074344
      px      :     1.053429
      py      :     1.056875
      dz2     :     0.008120  d :     0.105813
      dxz     :     0.013328
      dyz     :     0.013854
      dx2y2   :     0.036910
      dxy     :     0.033602
  2 C s       :     2.898117  s :     2.898117
      pz      :     1.031978  p :     3.073178
      px      :     1.037379
      py      :     1.003822
      dz2     :     0.009084  d :     0.122319
      dxz     :     0.015491
      dyz     :     0.016559
      dx2y2   :     0.038917
      dxy     :     0.042269
  3 C s       :     2.841663  s :     2.841663
      pz      :     1.032554  p :     3.138450
      px      :     1.024352
      py      :     1.081543
      dz2     :     0.008769  d :     0.113477
      dxz     :     0.012067
      dyz     :     0.016234
      dx2y2   :     0.042015
      dxy     :     0.034392
  4 C s       :     2.854477  s :     2.854477
      pz      :     0.953574  p :     3.047065
      px      :     1.052643
      py      :     1.040848
      dz2     :     0.007381  d :     0.091331
      dxz     :     0.014451
      dyz     :     0.007181
      dx2y2   :     0.029388
      dxy     :     0.032930
  5 C s       :     2.854784  s :     2.854784
      pz      :     0.978235  p :     3.077033
      px      :     1.051152
      py      :     1.047647
      dz2     :     0.006612  d :     0.091061
      dxz     :     0.010517
      dyz     :     0.009992
      dx2y2   :     0.029679
      dxy     :     0.034261
  6 C s       :     2.850926  s :     2.850926
      pz      :     0.961080  p :     3.052716
      px      :     1.014109
      py      :     1.077527
      dz2     :     0.007657  d :     0.106869
      dxz     :     0.011689
      dyz     :     0.015514
      dx2y2   :     0.036791
      dxy     :     0.035217
  7 C s       :     2.837418  s :     2.837418
      pz      :     1.038157  p :     3.130524
      px      :     1.016785
      py      :     1.075582
      dz2     :     0.011583  d :     0.082447
      dxz     :     0.022574
      dyz     :     0.017804
      dx2y2   :     0.020176
      dxy     :     0.010310
  8 H s       :     0.881185  s :     0.881185
      pz      :     0.021366  p :     0.067767
      px      :     0.012627
      py      :     0.033775
  9 C s       :     2.846617  s :     2.846617
      pz      :     0.945436  p :     2.760570
      px      :     0.847797
      py      :     0.967338
      dz2     :     0.049101  d :     0.301002
      dxz     :     0.025634
      dyz     :     0.088104
      dx2y2   :     0.074179
      dxy     :     0.063983
 10 O s       :     3.539841  s :     3.539841
      pz      :     1.620181  p :     4.606981
      px      :     1.459051
      py      :     1.527749
      dz2     :     0.003969  d :     0.032338
      dxz     :     0.002041
      dyz     :     0.008956
      dx2y2   :     0.008607
      dxy     :     0.008764
 11 O s       :     3.419116  s :     3.419116
      pz      :     1.399254  p :     4.589433
      px      :     1.636708
      py      :     1.553471
      dz2     :     0.004615  d :     0.027561
      dxz     :     0.005000
      dyz     :     0.007525
      dx2y2   :     0.006672
      dxy     :     0.003748
 12 H s       :     0.722596  s :     0.722596
      pz      :     0.079559  p :     0.174346
      px      :     0.057924
      py      :     0.036863
 13 H s       :     0.879814  s :     0.879814
      pz      :     0.021004  p :     0.067877
      px      :     0.016126
      py      :     0.030747
 14 H s       :     0.892329  s :     0.892329
      pz      :     0.014510  p :     0.067557
      px      :     0.023915
      py      :     0.029132
 15 H s       :     0.883497  s :     0.883497
      pz      :     0.013339  p :     0.067954
      px      :     0.014094
      py      :     0.040521
 16 C s       :     2.910049  s :     2.910049
      pz      :     0.942594  p :     3.010630
      px      :     1.129154
      py      :     0.938882
      dz2     :     0.012123  d :     0.108231
      dxz     :     0.033003
      dyz     :     0.003343
      dx2y2   :     0.029975
      dxy     :     0.029787
 17 N s       :     3.422828  s :     3.422828
      pz      :     1.077883  p :     3.579224
      px      :     1.430903
      py      :     1.070437
      dz2     :     0.006645  d :     0.054801
      dxz     :     0.014339
      dyz     :     0.001555
      dx2y2   :     0.017140
      dxy     :     0.015122
 18 Cls       :     5.747191  s :     5.747191
      pz      :     3.885653  p :    11.051575
      px      :     3.613737
      py      :     3.552185
      dz2     :     0.006222  d :     0.043829
      dxz     :     0.004761
      dyz     :     0.006144
      dx2y2   :     0.005680
      dxy     :     0.021022
 19 H s       :     0.886934  s :     0.886934
      pz      :     0.036685  p :     0.065825
      px      :     0.013193
      py      :     0.015947
 20 H s       :     0.898526  s :     0.898526
      pz      :     0.022789  p :     0.069345
      px      :     0.024105
      py      :     0.022451
 21 H s       :     0.890508  s :     0.890508
      pz      :     0.016305  p :     0.070033
      px      :     0.041597
      py      :     0.012132


                      *****************************
                      * MAYER POPULATION ANALYSIS *
                      *****************************

  NA   - Mulliken gross atomic population
  ZA   - Total nuclear charge
  QA   - Mulliken gross atomic charge
  VA   - Mayer's total valence
  BVA  - Mayer's bonded valence
  FA   - Mayer's free valence

  ATOM       NA         ZA         QA         VA         BVA        FA
  0 C      5.9632     6.0000     0.0368     3.9189     3.9189    -0.0000
  1 C      6.1217     6.0000    -0.1217     4.0822     4.0822     0.0000
  2 C      5.9432     6.0000     0.0568     4.0315     4.0315    -0.0000
  3 C      6.1332     6.0000    -0.1332     4.0109     4.0109    -0.0000
  4 C      5.9813     6.0000     0.0187     3.8922     3.8922    -0.0000
  5 C      6.0167     6.0000    -0.0167     3.8609     3.8609    -0.0000
  6 C      6.1173     6.0000    -0.1173     4.0056     4.0056    -0.0000
  7 C      5.9380     6.0000     0.0620     3.8482     3.8482    -0.0000
  8 H      0.9344     1.0000     0.0656     0.9991     0.9991     0.0000
  9 C      5.8485     6.0000     0.1515     4.3772     4.3772    -0.0000
 10 O      8.2233     8.0000    -0.2233     2.2457     2.2457    -0.0000
 11 O      8.1925     8.0000    -0.1925     2.2456     2.2456     0.0000
 12 H      0.8004     1.0000     0.1996     1.0197     1.0197    -0.0000
 13 H      0.9354     1.0000     0.0646     0.9944     0.9944    -0.0000
 14 H      0.9733     1.0000     0.0267     0.9978     0.9978    -0.0000
 15 H      0.9639     1.0000     0.0361     0.9924     0.9924    -0.0000
 16 C      6.1059     6.0000    -0.1059     4.0869     4.0869     0.0000
 17 N      6.9349     7.0000     0.0651     3.1426     3.1426    -0.0000
 18 Cl    17.0502    17.0000    -0.0502     1.2204     1.2204    -0.0000
 19 H      0.9345     1.0000     0.0655     0.9908     0.9908    -0.0000
 20 H      0.9491     1.0000     0.0509     1.0151     1.0151     0.0000
 21 H      0.9392     1.0000     0.0608     1.0308     1.0308    -0.0000

  Mayer bond orders larger than 0.100000
B(  0-C ,  1-C ) :   1.0674 B(  0-C , 19-H ) :   0.9514 B(  0-C , 20-H ) :   0.9444 
B(  0-C , 21-H ) :   0.9392 B(  1-C ,  2-C ) :   1.4191 B(  1-C ,  6-C ) :   1.4080 
B(  2-C ,  3-C ) :   1.4060 B(  2-C , 18-Cl) :   1.0888 B(  3-C ,  4-C ) :   1.3954 
B(  3-C , 16-C ) :   1.0557 B(  4-C ,  5-C ) :   1.3814 B(  4-C , 15-H ) :   0.9969 
B(  5-C ,  6-C ) :   1.3845 B(  5-C , 14-H ) :   0.9904 B(  6-C ,  7-C ) :   1.0576 
B(  7-C ,  8-H ) :   0.9264 B(  7-C ,  9-C ) :   0.9685 B(  7-C , 13-H ) :   0.9208 
B(  9-C , 10-O ) :   2.0819 B(  9-C , 11-O ) :   1.2473 B( 11-O , 12-H ) :   0.9470 
B( 16-C , 17-N ) :   3.0344 

-------
TIMINGS
-------

Total SCF time: 0 days 0 hours 1 min 44 sec 

Total time                  ....     104.631 sec
Sum of individual times     ....     104.393 sec  ( 99.8%)

Fock matrix formation       ....     102.516 sec  ( 98.0%)
  XC integration            ....       5.180 sec  (  5.1% of F)
    Basis function eval.    ....       1.528 sec  ( 29.5% of XC)
    Density eval.           ....       0.987 sec  ( 19.1% of XC)
    XC-Functional eval.     ....       1.311 sec  ( 25.3% of XC)
    XC-Potential eval.      ....       1.207 sec  ( 23.3% of XC)
Diagonalization             ....       0.008 sec  (  0.0%)
Density matrix formation    ....       0.010 sec  (  0.0%)
Population analysis         ....       0.007 sec  (  0.0%)
Initial guess               ....       0.008 sec  (  0.0%)
Orbital Transformation      ....       0.000 sec  (  0.0%)
Orbital Orthonormalization  ....       0.006 sec  (  0.0%)
DIIS solution               ....       0.002 sec  (  0.0%)
SOSCF solution              ....       0.036 sec  (  0.0%)
Grid generation             ....       1.806 sec  (  1.7%)


-------------------------------------------------------------------------------
                          DFT DISPERSION CORRECTION                            
                                                                               
                              DFTD3 V3.1  Rev 1                                
                              USING zero damping                               
-------------------------------------------------------------------------------
The omegaB97X-D3 functional is recognized. Fit by Chai et al.
Active option DFTDOPT                   ...         3   

molecular C6(AA) [au] = 7030.377376 


            DFT-D V3
 parameters
 s6 scaling factor         :     1.0000 
 rs6 scaling factor        :     1.2810 
 s8 scaling factor         :     1.0000 
 rs8 scaling factor        :     1.0940 
 Damping factor alpha6     :    14.0000 
 Damping factor alpha8     :    16.0000 
 ad hoc parameters k1-k3   :    16.0000     1.3333    -4.0000 

 Edisp/kcal,au: -5.941992361084  -0.009469166559 
 E6   /kcal   :  -2.529054410 
 E8   /kcal   :  -3.412937951 
 % E8         :  57.437602462 

-------------------------   ----------------
Dispersion correction           -0.009469167
-------------------------   ----------------


-------------------------   --------------------
FINAL SINGLE POINT ENERGY     -1050.550996373855
-------------------------   --------------------

                                *** OPTIMIZATION RUN DONE ***

                            ***************************************
                            *     ORCA property calculations      *
                            ***************************************

                                    ---------------------
                                    Active property flags
                                    ---------------------
   (+) Dipole Moment


------------------------------------------------------------------------------
                       ORCA ELECTRIC PROPERTIES CALCULATION
------------------------------------------------------------------------------

Dipole Moment Calculation                       ... on
Quadrupole Moment Calculation                   ... off
Polarizability Calculation                      ... off
GBWName                                         ... 016731996.gbw
Electron density file                           ... 016731996.scfp
The origin for moment calculation is the CENTER OF MASS  = (-0.013450,  0.003802  0.027821)

-------------
DIPOLE MOMENT
-------------
                                X             Y             Z
Electronic contribution:     12.26876      -1.19601      -3.23261
Nuclear contribution   :    -14.22294       1.56222       3.73388
                        -----------------------------------------
Total Dipole Moment    :     -1.95419       0.36621       0.50127
                        -----------------------------------------
Magnitude (a.u.)       :      2.05042
Magnitude (Debye)      :      5.21176



--------------------
Rotational spectrum 
--------------------
 
Rotational constants in cm-1:     0.037926     0.012539     0.010146 
Rotational constants in MHz :  1136.998548   375.916269   304.183642 

 Dipole components along the rotational axes: 
x,y,z [a.u.] :     1.943135     0.399850     0.518244 
x,y,z [Debye]:     4.939057     1.016337     1.317272 

 

Timings for individual modules:

Sum of individual times         ...     3694.043 sec (=  61.567 min)
GTO integral calculation        ...        5.451 sec (=   0.091 min)   0.1 %
SCF iterations                  ...     2386.012 sec (=  39.767 min)  64.6 %
SCF Gradient evaluation         ...     1292.425 sec (=  21.540 min)  35.0 %
Geometry relaxation             ...       10.154 sec (=   0.169 min)   0.3 %
                             ****ORCA TERMINATED NORMALLY****
TOTAL RUN TIME: 0 days 1 hours 1 minutes 36 seconds 389 msec
