
                                 *****************
                                 * O   R   C   A *
                                 *****************

           --- An Ab Initio, DFT and Semiempirical electronic structure package ---

                  #######################################################
                  #                        -***-                        #
                  #          Department of theory and spectroscopy      #
                  #               Directorship: Frank Neese             #
                  #        Max Planck Institute fuer Kohlenforschung    #
                  #                Kaiser Wilhelm Platz 1               #
                  #                 D-45470 Muelheim/Ruhr               #
                  #                      Germany                        #
                  #                                                     #
                  #                  All rights reserved                #
                  #                        -***-                        #
                  #######################################################


                         Program Version 4.2.0 -  RELEASE  -


 With contributions from (in alphabetic order):
   Daniel Aravena         : Magnetic Suceptibility
   Michael Atanasov       : Ab Initio Ligand Field Theory (pilot matlab implementation)
   Alexander A. Auer      : GIAO ZORA, VPT2
   Ute Becker             : Parallelization
   Giovanni Bistoni       : ED, misc. LED, open-shell LED, HFLED
   Martin Brehm           : Molecular dynamics
   Dmytro Bykov           : SCF Hessian
   Vijay G. Chilkuri      : MRCI spin determinant printing, contributions to CSF-ICE
   Dipayan Datta          : RHF DLPNO-CCSD density
   Achintya Kumar Dutta   : EOM-CC, STEOM-CC
   Dmitry Ganyushin       : Spin-Orbit,Spin-Spin,Magnetic field MRCI
   Miquel Garcia          : C-PCM Hessian, Gaussian charge scheme
   Yang Guo               : DLPNO-NEVPT2, CIM, IAO-localization
   Andreas Hansen         : Spin unrestricted coupled pair/coupled cluster methods
   Benjamin Helmich-Paris : CASSCF linear response (MC-RPA)
   Lee Huntington         : MR-EOM, pCC
   Robert Izsak           : Overlap fitted RIJCOSX, COSX-SCS-MP3, EOM
   Christian Kollmar      : KDIIS, OOCD, Brueckner-CCSD(T), CCSD density
   Simone Kossmann        : Meta GGA functionals, TD-DFT gradient, OOMP2, MP2 Hessian
   Martin Krupicka        : AUTO-CI
   Lucas Lang             : DCDCAS
   Dagmar Lenk            : GEPOL surface, SMD
   Dimitrios Liakos       : Extrapolation schemes; Compound Job, initial MDCI parallelization
   Dimitrios Manganas     : Further ROCIS development; embedding schemes
   Dimitrios Pantazis     : SARC Basis sets
   Taras Petrenko         : DFT Hessian,TD-DFT gradient, ASA, ECA, R-Raman, ABS, FL, XAS/XES, NRVS
   Peter Pinski           : DLPNO-MP2, DLPNO-MP2 Gradient
   Christoph Reimann      : Effective Core Potentials
   Marius Retegan         : Local ZFS, SOC
   Christoph Riplinger    : Optimizer, TS searches, QM/MM, DLPNO-CCSD(T), (RO)-DLPNO pert. Triples
   Tobias Risthaus        : Range-separated hybrids, TD-DFT gradient, RPA, STAB
   Michael Roemelt        : Original ROCIS implementation
   Masaaki Saitow         : Open-shell DLPNO-CCSD energy and density
   Barbara Sandhoefer     : DKH picture change effects
   Avijit Sen             : IP-ROCIS
   Kantharuban Sivalingam : CASSCF convergence, NEVPT2, FIC-MRCI
   Bernardo de Souza      : ESD, SOC TD-DFT
   Georgi Stoychev        : AutoAux, RI-MP2 NMR
   Willem Van den Heuvel  : Paramagnetic NMR
   Boris Wezisla          : Elementary symmetry handling
   Frank Wennmohs         : Technical directorship


 We gratefully acknowledge several colleagues who have allowed us to
 interface, adapt or use parts of their codes:
   Stefan Grimme, W. Hujo, H. Kruse,             : VdW corrections, initial TS optimization,
                  C. Bannwarth                     DFT functionals, gCP, sTDA/sTD-DF
   Ed Valeev, F. Pavosevic, A. Kumar             : LibInt (2-el integral package), F12 methods
   Garnet Chan, S. Sharma, J. Yang, R. Olivares  : DMRG
   Ulf Ekstrom                                   : XCFun DFT Library
   Mihaly Kallay                                 : mrcc  (arbitrary order and MRCC methods)
   Andreas Klamt, Michael Diedenhofen            : otool_cosmo (COSMO solvation model)
   Jiri Pittner, Ondrej Demel                    : Mk-CCSD
   Frank Weinhold                                : gennbo (NPA and NBO analysis)
   Christopher J. Cramer and Donald G. Truhlar   : smd solvation model
   Lars Goerigk                                  : TD-DFT with DH, B97 family of functionals
   V. Asgeirsson, H. Jonsson                     : NEB implementation
   FAccTs GmbH                                   : IRC, NEB, NEB-TS, Multilevel, MM, QM/MM, CI optimization
   S Lehtola, MJT Oliveira, MAL Marques          : LibXC Library


 Your calculation uses the libint2 library for the computation of 2-el integrals
 For citations please refer to: http://libint.valeyev.net

 Your ORCA version has been built with support for libXC version: 4.2.3
 For citations please refer to: https://tddft.org/programs/libxc/

 This ORCA versions uses:
   CBLAS   interface :  Fast vector & matrix operations
   LAPACKE interface :  Fast linear algebra routines
   SCALAPACK package :  Parallel linear algebra routines


Your calculation utilizes the atom-pairwise dispersion correction
with the zero-damping scheme (D30)
Cite in your paper:
S.Grimme, J.Antony, S.Ehrlich and H.Krieg, J.Chem.Phys., 132, (2010), 154104 
   

XCFun DFT library Copyright 2009-2010 Ulf Ekstrom and contributors.
See http://admol.org/xcfun for more information. This is free soft-
ware; see the source code for copying conditions. There is ABSOLUTELY
NO WARRANTY; not even for MERCHANTABILITY or FITNESS FOR A PARTICULAR
PURPOSE. For details see the documentation. Scientific users of this 
library should cite U. Ekstrom, L. Visscher, R. Bast, A. J. Thorvald-
sen and K. Ruud; J.Chem.Theor.Comp. 2010, DOI: 10.1021/ct100117s
XCFun Version 0.99 
----- Orbital basis set information -----
Your calculation utilizes the basis: def2-SVP
   F. Weigend and R. Ahlrichs, Phys. Chem. Chem. Phys. 7, 3297 (2005).

================================================================================
                                        WARNINGS
                       Please study these warnings very carefully!
================================================================================


WARNING: Geometry Optimization
  ===> : Switching off AutoStart
         For restart on a previous wavefunction, please use MOREAD

INFO   : the flag for use of LIBINT has been found!

================================================================================
                                       INPUT FILE
================================================================================
NAME = 019622775.inp
|  1> # ORCA input file
|  2> # -52.40534012
|  3> ! wB97X-D3 def2-SVP Opt
|  4> * xyz 0 1
|  5>    C        1.65640         1.24640        -0.80090
|  6>    C        0.39590         1.63400        -0.39550
|  7>    C       -0.46570         0.71400         0.19760
|  8>    C       -0.04670        -0.59750         0.37430
|  9>    C        1.22110        -0.97390        -0.03440
| 10>    C        2.08790        -0.06730        -0.62820
| 11>    C        3.47700        -0.48290        -1.01400
| 12>    H        3.50620        -1.52060        -1.34550
| 13>    C        4.45590        -0.34220         0.15420
| 14>    O        5.31540        -1.13760         0.39010
| 15>    O        4.29980         0.76300         0.89450
| 16>    H        3.53620         1.28860         0.60730
| 17>    H        3.85710         0.14730        -1.82280
| 18>    H        1.53730        -1.99600         0.10820
| 19>    H       -0.68680        -1.34570         0.81320
| 20>    O       -1.68110         1.23390         0.58040
| 21>    C       -2.67270         0.41250         1.11400
| 22>    H       -2.28640        -0.34330         1.80810
| 23>    C       -3.49220        -0.30060         0.02890
| 24>    F       -2.77690        -1.17380        -0.68990
| 25>    F       -4.03970         0.55750        -0.83380
| 26>    F       -4.49660        -0.99500         0.58780
| 27>    H       -3.36430         1.07330         1.64690
| 28>    H        0.05170         2.64640        -0.53130
| 29>    H        2.29980         1.97120        -1.28150
| 30> *
| 31> 
| 32>                          ****END OF INPUT****
================================================================================

                       *****************************
                       * Geometry Optimization Run *
                       *****************************

Geometry optimization settings:
Update method            Update   .... BFGS
Choice of coordinates    CoordSys .... Z-matrix Internals
Initial Hessian          InHess   .... Almoef's Model

Convergence Tolerances:
Energy Change            TolE     ....  5.0000e-06 Eh
Max. Gradient            TolMAXG  ....  3.0000e-04 Eh/bohr
RMS Gradient             TolRMSG  ....  1.0000e-04 Eh/bohr
Max. Displacement        TolMAXD  ....  4.0000e-03 bohr
RMS Displacement         TolRMSD  ....  2.0000e-03 bohr
Strict Convergence                ....  False
------------------------------------------------------------------------------
                        ORCA OPTIMIZATION COORDINATE SETUP
------------------------------------------------------------------------------

The optimization will be done in new redundant internal coordinates
Making redundant internal coordinates   ...  (new redundants) done
Evaluating the initial hessian          ...  (Almloef) done
Evaluating the coordinates              ...  done
Calculating the B-matrix                .... done
Calculating the G-matrix                .... done
Diagonalizing the G-matrix              .... done
Small eigenvalue found = 8.975e-03
Small eigenvalue found = 1.808e-02
Small eigenvalue found = 1.878e-02
The first mode is                       ....   49
The number of degrees of freedom        ....   69

    -----------------------------------------------------------------
                    Redundant Internal Coordinates


    -----------------------------------------------------------------
         Definition                    Initial Value    Approx d2E/dq
    -----------------------------------------------------------------
      1. B(C   1,C   0)                  1.3797         0.649002   
      2. B(C   2,C   1)                  1.3930         0.617889   
      3. B(C   3,C   2)                  1.3881         0.629177   
      4. B(C   4,C   3)                  1.3842         0.638235   
      5. B(C   5,C   4)                  1.3878         0.629970   
      6. B(C   5,C   0)                  1.3935         0.616828   
      7. B(C   6,C   5)                  1.5004         0.416506   
      8. B(H   7,C   6)                  1.0898         0.360424   
      9. B(C   8,C   6)                  1.5306         0.372754   
     10. B(O   9,C   8)                  1.1946         1.147193   
     11. B(O  10,C   8)                  1.3394         0.674019   
     12. B(H  11,O  10)                  0.9705         0.500325   
     13. B(H  12,C   6)                  1.0935         0.355474   
     14. B(H  13,C   4)                  1.0794         0.374462   
     15. B(H  14,C   3)                  1.0780         0.376278   
     16. B(O  15,C   2)                  1.3762         0.588617   
     17. B(C  16,O  15)                  1.3938         0.551826   
     18. B(H  17,C  16)                  1.0965         0.351648   
     19. B(C  18,C  16)                  1.5354         0.366202   
     20. B(F  19,C  18)                  1.3382         0.628919   
     21. B(F  20,C  18)                  1.3343         0.638029   
     22. B(F  21,C  18)                  1.3429         0.618176   
     23. B(H  22,C  16)                  1.0950         0.353591   
     24. B(H  23,C   1)                  1.0779         0.376467   
     25. B(H  24,C   0)                  1.0818         0.371123   
     26. A(C   1,C   0,H  24)          119.0584         0.357480   
     27. A(C   1,C   0,C   5)          120.7536         0.437251   
     28. A(C   5,C   0,H  24)          120.1672         0.354408   
     29. A(C   2,C   1,H  23)          118.4528         0.355372   
     30. A(C   0,C   1,H  23)          121.2380         0.358350   
     31. A(C   0,C   1,C   2)          120.3086         0.437386   
     32. A(C   1,C   2,O  15)          114.5294         0.426966   
     33. A(C   1,C   2,C   3)          119.4385         0.434948   
     34. A(C   3,C   2,O  15)          126.0216         0.428353   
     35. A(C   2,C   3,C   4)          119.7226         0.437494   
     36. A(C   4,C   3,H  14)          118.3797         0.357302   
     37. A(C   2,C   3,H  14)          121.8932         0.356435   
     38. A(C   5,C   4,H  13)          119.4841         0.356218   
     39. A(C   3,C   4,C   5)          121.3840         0.437594   
     40. A(C   3,C   4,H  13)          119.1310         0.357008   
     41. A(C   0,C   5,C   6)          121.0611         0.403988   
     42. A(C   0,C   5,C   4)          118.3916         0.434912   
     43. A(C   4,C   5,C   6)          120.4871         0.405494   
     44. A(C   5,C   6,H   7)          111.5178         0.330234   
     45. A(H   7,C   6,C   8)          107.6120         0.324250   
     46. A(C   5,C   6,C   8)          111.7404         0.370050   
     47. A(C   8,C   6,H  12)          106.8117         0.323514   
     48. A(H   7,C   6,H  12)          108.3287         0.290291   
     49. A(C   5,C   6,H  12)          110.6318         0.329480   
     50. A(O   9,C   8,O  10)          121.6100         0.486580   
     51. A(C   6,C   8,O  10)          115.0351         0.399822   
     52. A(C   6,C   8,O   9)          123.3440         0.439580   
     53. A(C   8,O  10,H  11)          112.0265         0.372997   
     54. A(C   2,O  15,C  16)          120.8070         0.415715   
     55. A(H  17,C  16,C  18)          108.3775         0.322004   
     56. A(O  15,C  16,C  18)          112.5108         0.384874   
     57. A(O  15,C  16,H  17)          113.4484         0.342560   
     58. A(C  18,C  16,H  22)          106.6850         0.322294   
     59. A(H  17,C  16,H  22)          109.2949         0.288930   
     60. A(O  15,C  16,H  22)          106.2617         0.342876   
     61. A(F  19,C  18,F  20)          106.9585         0.427909   
     62. A(C  16,C  18,F  20)          112.1636         0.393048   
     63. A(C  16,C  18,F  19)          113.4131         0.392060   
     64. A(F  20,C  18,F  21)          107.1418         0.426590   
     65. A(F  19,C  18,F  21)          106.6143         0.425493   
     66. A(C  16,C  18,F  21)          110.1953         0.390881   
     67. D(H  23,C   1,C   0,C   5)   -179.5851         0.029321   
     68. D(C   2,C   1,C   0,H  24)    178.4931         0.029321   
     69. D(C   2,C   1,C   0,C   5)      0.1494         0.029321   
     70. D(H  23,C   1,C   0,H  24)     -1.2414         0.029321   
     71. D(C   3,C   2,C   1,H  23)    179.5742         0.026408   
     72. D(O  15,C   2,C   1,H  23)     -1.5306         0.026408   
     73. D(O  15,C   2,C   1,C   0)    178.7276         0.026408   
     74. D(C   3,C   2,C   1,C   0)     -0.1676         0.026408   
     75. D(H  14,C   3,C   2,C   1)   -178.9387         0.027443   
     76. D(H  14,C   3,C   2,O  15)      2.3041         0.027443   
     77. D(C   4,C   3,C   2,O  15)   -178.4786         0.027443   
     78. D(C   4,C   3,C   2,C   1)      0.2786         0.027443   
     79. D(C   5,C   4,C   3,H  14)    178.8661         0.028291   
     80. D(C   5,C   4,C   3,C   2)     -0.3786         0.028291   
     81. D(H  13,C   4,C   3,C   2)    179.9588         0.028291   
     82. D(H  13,C   4,C   3,H  14)     -0.7965         0.028291   
     83. D(C   6,C   5,C   4,H  13)     -2.7774         0.027516   
     84. D(C   0,C   5,C   4,H  13)   -179.9847         0.027516   
     85. D(C   0,C   5,C   4,C   3)      0.3539         0.027516   
     86. D(C   6,C   5,C   0,H  24)      4.2464         0.026312   
     87. D(C   6,C   5,C   0,C   1)   -177.4282         0.026312   
     88. D(C   6,C   5,C   4,C   3)    177.5612         0.027516   
     89. D(C   4,C   5,C   0,H  24)   -178.5630         0.026312   
     90. D(C   4,C   5,C   0,C   1)     -0.2377         0.026312   
     91. D(H  12,C   6,C   5,C   4)    155.0663         0.012834   
     92. D(H  12,C   6,C   5,C   0)    -27.8018         0.012834   
     93. D(C   8,C   6,C   5,C   4)    -86.0619         0.012834   
     94. D(C   8,C   6,C   5,C   0)     91.0700         0.012834   
     95. D(H   7,C   6,C   5,C   4)     34.4264         0.012834   
     96. D(H   7,C   6,C   5,C   0)   -148.4416         0.012834   
     97. D(O   9,C   8,C   6,C   5)    140.2027         0.010394   
     98. D(O  10,C   8,C   6,H  12)     80.1336         0.010394   
     99. D(O  10,C   8,C   6,H   7)   -163.7256         0.010394   
    100. D(O  10,C   8,C   6,C   5)    -40.9818         0.010394   
    101. D(O   9,C   8,C   6,H  12)    -98.6819         0.010394   
    102. D(O   9,C   8,C   6,H   7)     17.4588         0.010394   
    103. D(H  11,O  10,C   8,O   9)   -177.2988         0.033784   
    104. D(H  11,O  10,C   8,C   6)      3.8631         0.033784   
    105. D(C  16,O  15,C   2,C   3)     -5.0480         0.025243   
    106. D(C  16,O  15,C   2,C   1)    176.1417         0.025243   
    107. D(H  22,C  16,O  15,C   2)    160.6038         0.024279   
    108. D(C  18,C  16,O  15,C   2)    -82.9965         0.024279   
    109. D(H  17,C  16,O  15,C   2)     40.4910         0.024279   
    110. D(F  21,C  18,C  16,H  22)    -59.0747         0.010734   
    111. D(F  21,C  18,C  16,H  17)     58.5105         0.010734   
    112. D(F  21,C  18,C  16,O  15)   -175.2207         0.010734   
    113. D(F  20,C  18,C  16,H  22)     60.1962         0.010734   
    114. D(F  20,C  18,C  16,H  17)    177.7814         0.010734   
    115. D(F  20,C  18,C  16,O  15)    -55.9498         0.010734   
    116. D(F  19,C  18,C  16,H  22)   -178.4987         0.010734   
    117. D(F  19,C  18,C  16,H  17)    -60.9135         0.010734   
    118. D(F  19,C  18,C  16,O  15)     65.3553         0.010734   
    -----------------------------------------------------------------

Number of atoms                         .... 25
Number of degrees of freedom            .... 118

         *************************************************************
         *                GEOMETRY OPTIMIZATION CYCLE   1            *
         *************************************************************
---------------------------------
CARTESIAN COORDINATES (ANGSTROEM)
---------------------------------
  C      1.656400    1.246400   -0.800900
  C      0.395900    1.634000   -0.395500
  C     -0.465700    0.714000    0.197600
  C     -0.046700   -0.597500    0.374300
  C      1.221100   -0.973900   -0.034400
  C      2.087900   -0.067300   -0.628200
  C      3.477000   -0.482900   -1.014000
  H      3.506200   -1.520600   -1.345500
  C      4.455900   -0.342200    0.154200
  O      5.315400   -1.137600    0.390100
  O      4.299800    0.763000    0.894500
  H      3.536200    1.288600    0.607300
  H      3.857100    0.147300   -1.822800
  H      1.537300   -1.996000    0.108200
  H     -0.686800   -1.345700    0.813200
  O     -1.681100    1.233900    0.580400
  C     -2.672700    0.412500    1.114000
  H     -2.286400   -0.343300    1.808100
  C     -3.492200   -0.300600    0.028900
  F     -2.776900   -1.173800   -0.689900
  F     -4.039700    0.557500   -0.833800
  F     -4.496600   -0.995000    0.587800
  H     -3.364300    1.073300    1.646900
  H      0.051700    2.646400   -0.531300
  H      2.299800    1.971200   -1.281500

----------------------------
CARTESIAN COORDINATES (A.U.)
----------------------------
  NO LB      ZA    FRAG     MASS         X           Y           Z
   0 C     6.0000    0    12.011    3.130142    2.355355   -1.513482
   1 C     6.0000    0    12.011    0.748143    3.087813   -0.747387
   2 C     6.0000    0    12.011   -0.880045    1.349264    0.373410
   3 C     6.0000    0    12.011   -0.088250   -1.129111    0.707324
   4 C     6.0000    0    12.011    2.307545   -1.840404   -0.065007
   5 C     6.0000    0    12.011    3.945559   -0.127179   -1.187126
   6 C     6.0000    0    12.011    6.570578   -0.912549   -1.916182
   7 H     1.0000    0     1.008    6.625758   -2.873518   -2.542627
   8 C     6.0000    0    12.011    8.420431   -0.646664    0.291396
   9 O     8.0000    0    15.999   10.044650   -2.149752    0.737182
  10 O     8.0000    0    15.999    8.125444    1.441861    1.690360
  11 H     1.0000    0     1.008    6.682450    2.435101    1.147631
  12 H     1.0000    0     1.008    7.288863    0.278357   -3.444593
  13 H     1.0000    0     1.008    2.905076   -3.771893    0.204468
  14 H     1.0000    0     1.008   -1.297864   -2.543004    1.536725
  15 O     8.0000    0    15.999   -3.176819    2.331733    1.096797
  16 C     6.0000    0    12.011   -5.050671    0.779512    2.105155
  17 H     1.0000    0     1.008   -4.320670   -0.648743    3.416814
  18 C     6.0000    0    12.011   -6.599302   -0.568052    0.054613
  19 F     9.0000    0    18.998   -5.247581   -2.218161   -1.303722
  20 F     9.0000    0    18.998   -7.633927    1.053522   -1.575654
  21 F     9.0000    0    18.998   -8.497343   -1.880278    1.110781
  22 H     1.0000    0     1.008   -6.357606    2.028243    3.112190
  23 H     1.0000    0     1.008    0.097699    5.000971   -1.004011
  24 H     1.0000    0     1.008    4.345992    3.725028   -2.421684

--------------------------------
INTERNAL COORDINATES (ANGSTROEM)
--------------------------------
 C      0   0   0     0.000000000000     0.00000000     0.00000000
 C      1   0   0     1.379653278907     0.00000000     0.00000000
 C      2   1   0     1.393026263213   120.30860861     0.00000000
 C      3   2   1     1.388098029679   119.43846972   359.83243962
 C      4   3   2     1.384207170188   119.72257997     0.27864627
 C      5   4   3     1.387755108079   121.38400795   359.62142428
 C      6   5   4     1.500387886515   120.48707693   177.56116294
 H      7   6   5     1.089755100929   111.51780607    34.42643561
 C      7   6   5     1.530598882791   111.74036538   273.93811086
 O      9   7   6     1.194592072634   123.34403238   140.20266856
 O      9   7   6     1.339357435489   115.03510956   319.01817630
 H     11   9   7     0.970476254217   112.02652154     3.86312813
 H      7   6   5     1.093519771198   110.63182214   155.06626113
 H      5   4   3     1.079354256025   119.13102802   179.95884511
 H      4   3   2     1.078037318464   121.89321526   181.06133185
 O      3   2   1     1.376237265155   114.52944859   178.72760923
 C     16   3   2     1.393806830232   120.80701344   176.14167068
 H     17  16   3     1.096465293568   113.44842668    40.49103544
 C     17  16   3     1.535426282828   112.51075423   277.00346462
 F     19  17  16     1.338209912532   113.41311660    65.35528656
 F     19  17  16     1.334295001115   112.16357951   304.05016830
 F     19  17  16     1.342899821282   110.19530759   184.77928949
 H     17  16   3     1.094965574801   106.26165716   160.60384072
 H      2   1   3     1.077900292235   121.23803262   180.26551488
 H      1   2   3     1.081792475478   119.05842906   178.49306927

---------------------------
INTERNAL COORDINATES (A.U.)
---------------------------
 C      0   0   0     0.000000000000     0.00000000     0.00000000
 C      1   0   0     2.607166856902     0.00000000     0.00000000
 C      2   1   0     2.632438134831   120.30860861     0.00000000
 C      3   2   1     2.623125123130   119.43846972   359.83243962
 C      4   3   2     2.615772464266   119.72257997     0.27864627
 C      5   4   3     2.622477095220   121.38400795   359.62142428
 C      6   5   4     2.835322200166   120.48707693   177.56116294
 H      7   6   5     2.059338693799   111.51780607    34.42643561
 C      7   6   5     2.892412709360   111.74036538   273.93811086
 O      9   7   6     2.257451859032   123.34403238   140.20266856
 O      9   7   6     2.531018748506   115.03510956   319.01817630
 H     11   9   7     1.833934339945   112.02652154     3.86312813
 H      7   6   5     2.066452889592   110.63182214   155.06626113
 H      5   4   3     2.039683945370   119.13102802   179.95884511
 H      4   3   2     2.037195294043   121.89321526   181.06133185
 O      3   2   1     2.600711526439   114.52944859   178.72760923
 C     16   3   2     2.633913192726   120.80701344   176.14167068
 H     17  16   3     2.072019120194   113.44842668    40.49103544
 C     17  16   3     2.901535173370   112.51075423   277.00346462
 F     19  17  16     2.528850244385   113.41311660    65.35528656
 F     19  17  16     2.521452133967   112.16357951   304.05016830
 F     19  17  16     2.537712887515   110.19530759   184.77928949
 H     17  16   3     2.069185062446   106.26165716   160.60384072
 H      2   1   3     2.036936351998   121.23803262   180.26551488
 H      1   2   3     2.044291512389   119.05842906   178.49306927

---------------------
BASIS SET INFORMATION
---------------------
There are 4 groups of distinct atoms

 Group   1 Type C   : 7s4p1d contracted to 3s2p1d pattern {511/31/1}
 Group   2 Type H   : 4s1p contracted to 2s1p pattern {31/1}
 Group   3 Type O   : 7s4p1d contracted to 3s2p1d pattern {511/31/1}
 Group   4 Type F   : 7s4p1d contracted to 3s2p1d pattern {511/31/1}

Atom   0C    basis set group =>   1
Atom   1C    basis set group =>   1
Atom   2C    basis set group =>   1
Atom   3C    basis set group =>   1
Atom   4C    basis set group =>   1
Atom   5C    basis set group =>   1
Atom   6C    basis set group =>   1
Atom   7H    basis set group =>   2
Atom   8C    basis set group =>   1
Atom   9O    basis set group =>   3
Atom  10O    basis set group =>   3
Atom  11H    basis set group =>   2
Atom  12H    basis set group =>   2
Atom  13H    basis set group =>   2
Atom  14H    basis set group =>   2
Atom  15O    basis set group =>   3
Atom  16C    basis set group =>   1
Atom  17H    basis set group =>   2
Atom  18C    basis set group =>   1
Atom  19F    basis set group =>   4
Atom  20F    basis set group =>   4
Atom  21F    basis set group =>   4
Atom  22H    basis set group =>   2
Atom  23H    basis set group =>   2
Atom  24H    basis set group =>   2
------------------------------------------------------------------------------
                           ORCA GTO INTEGRAL CALCULATION
------------------------------------------------------------------------------

                         BASIS SET STATISTICS AND STARTUP INFO

 # of primitive gaussian shells          ...  237
 # of primitive gaussian functions       ...  447
 # of contracted shells                  ...  123
 # of contracted basis functions         ...  269
 Highest angular momentum                ...    2
 Maximum contraction depth               ...    5
 Integral package used                   ... LIBINT
 Integral threshhold            Thresh   ...  2.500e-11
 Primitive cut-off              TCut     ...  2.500e-12


------------------------------ INTEGRAL EVALUATION ----------------------------


 * One electron integrals 
 Pre-screening matrix                    ... done
 Shell pair data                         ... done (   0.002 sec)

-------------------------------------------------------------------------------
                                 ORCA SCF
-------------------------------------------------------------------------------

------------
SCF SETTINGS
------------
Hamiltonian:
 Density Functional     Method          .... DFT(GTOs)
 Exchange Functional    Exchange        .... WB97X-D3
 Correlation Functional Correlation     .... WB97X-D3
 Gradients option       PostSCFGGA      .... off
 Hybrid DFT is turned on
   Fraction HF Exchange ScalHFX         ....  0.195728
   Scaling of DF-GGA-X  ScalDFX         ....  0.000000
   Scaling of DF-GGA-C  ScalDFC         ....  1.000000
   Scaling of DF-LDA-C  ScalLDAC        ....  1.000000
   Perturbative correction              ....  0.000000
   Density functional embedding theory  .... OFF
 Long-range corrected/Screened/Range-Separated Hybrid DFT is turned on
   Amount of maximum screened exact exchange              ....  0.804272
   Range separation parameter mu (erf(mu*r12)/r12)        ....  0.250000


General Settings:
 Integral files         IntName         .... 019622775
 Hartree-Fock type      HFTyp           .... RHF
 Total Charge           Charge          ....    0
 Multiplicity           Mult            ....    1
 Number of Electrons    NEL             ....  120
 Basis Dimension        Dim             ....  269
 Nuclear Repulsion      ENuc            ....   1108.3737241416 Eh

Convergence Acceleration:
 DIIS                   CNVDIIS         .... on
   Start iteration      DIISMaxIt       ....    12
   Startup error        DIISStart       ....  0.200000
   # of expansion vecs  DIISMaxEq       ....     5
   Bias factor          DIISBfac        ....   1.050
   Max. coefficient     DIISMaxC        ....  10.000
 Newton-Raphson         CNVNR           .... off
 SOSCF                  CNVSOSCF        .... on
   Start iteration      SOSCFMaxIt      ....   150
   Startup grad/error   SOSCFStart      ....  0.003300
 Level Shifting         CNVShift        .... on
   Level shift para.    LevelShift      ....    0.2500
   Turn off err/grad.   ShiftErr        ....    0.0010
 Zerner damping         CNVZerner       .... off
 Static damping         CNVDamp         .... on
   Fraction old density DampFac         ....    0.7000
   Max. Damping (<1)    DampMax         ....    0.9800
   Min. Damping (>=0)   DampMin         ....    0.0000
   Turn off err/grad.   DampErr         ....    0.1000
 Fernandez-Rico         CNVRico         .... off

SCF Procedure:
 Maximum # iterations   MaxIter         ....   125
 SCF integral mode      SCFMode         .... Direct
   Integral package                     .... LIBINT
 Reset frequency        DirectResetFreq ....    20
 Integral Threshold     Thresh          ....  2.500e-11 Eh
 Primitive CutOff       TCut            ....  2.500e-12 Eh

Convergence Tolerance:
 Convergence Check Mode ConvCheckMode   .... Total+1el-Energy
 Convergence forced     ConvForced      .... 0
 Energy Change          TolE            ....  1.000e-08 Eh
 1-El. energy change                    ....  1.000e-05 Eh
 Orbital Gradient       TolG            ....  1.000e-05
 Orbital Rotation angle TolX            ....  1.000e-05
 DIIS Error             TolErr          ....  5.000e-07


Diagonalization of the overlap matrix:
Smallest eigenvalue                        ... 2.311e-04
Time for diagonalization                   ...    0.019 sec
Threshold for overlap eigenvalues          ... 1.000e-08
Number of eigenvalues below threshold      ... 0
Time for construction of square roots      ...    0.004 sec
Total time needed                          ...    0.024 sec

-------------------
DFT GRID GENERATION
-------------------

General Integration Accuracy     IntAcc      ...  4.340
Radial Grid Type                 RadialGrid  ... Gauss-Chebyshev
Angular Grid (max. acc.)         AngularGrid ... Lebedev-110
Angular grid pruning method      GridPruning ... 3 (G Style)
Weight generation scheme         WeightScheme... Becke
Basis function cutoff            BFCut       ...    1.0000e-11
Integration weight cutoff        WCut        ...    1.0000e-14
Grids for H and He will be reduced by one unit

# of grid points (after initial pruning)     ...  34074 (   0.0 sec)
# of grid points (after weights+screening)   ...  31110 (   0.1 sec)
nearest neighbour list constructed           ...    0.0 sec
Grid point re-assignment to atoms done       ...    0.0 sec
Grid point division into batches done        ...    0.0 sec
Reduced shell lists constructed in    0.3 sec

Total number of grid points                  ...    31110
Total number of batches                      ...      495
Average number of points per batch           ...       62
Average number of grid points per atom       ...     1244
Average number of shells per batch           ...    66.46 (54.03%)
Average number of basis functions per batch  ...   139.84 (51.99%)
Average number of large shells per batch     ...    47.50 (71.47%)
Average number of large basis fcns per batch ...    99.34 (71.03%)
Maximum spatial batch extension              ...  17.85, 20.01, 18.86 au
Average spatial batch extension              ...   3.40,  3.57,  3.61 au

Time for grid setup =    0.396 sec

------------------------------
INITIAL GUESS: MODEL POTENTIAL
------------------------------
Loading Hartree-Fock densities                     ... done
Calculating cut-offs                               ... done
Setting up the integral package                    ... done
Initializing the effective Hamiltonian             ... done
Starting the Coulomb interaction                   ... done (   0.3 sec)
Reading the grid                                   ... done
Mapping shells                                     ... done
Starting the XC term evaluation                    ... done (   0.4 sec)
  promolecular density results
     # of electrons  =    120.004746655
     EX              =   -108.342678481
     EC              =     -4.096077600
     EX+EC           =   -112.438756081
Transforming the Hamiltonian                       ... done (   0.0 sec)
Diagonalizing the Hamiltonian                      ... done (   0.0 sec)
Back transforming the eigenvectors                 ... done (   0.0 sec)
Now organizing SCF variables                       ... done
                      ------------------
                      INITIAL GUESS DONE (   1.2 sec)
                      ------------------
--------------
SCF ITERATIONS
--------------
ITER       Energy         Delta-E        Max-DP      RMS-DP      [F,P]     Damp
               ***  Starting incremental Fock matrix formation  ***
  0   -910.4568035632   0.000000000000 0.08320141  0.00179238  0.2445641 0.7000
  1   -910.5915440124  -0.134740449246 0.06520384  0.00127955  0.1144230 0.7000
                               ***Turning on DIIS***
  2   -910.6553802348  -0.063836222374 0.09603082  0.00246938  0.0449363 0.0000
  3   -910.7625542403  -0.107174005537 0.05454979  0.00077299  0.0582327 0.0000
  4   -910.7775925950  -0.015038354642 0.00869711  0.00017681  0.0089322 0.0000
  5   -910.7781246935  -0.000532098539 0.00467244  0.00006647  0.0040173 0.0000
                      *** Initiating the SOSCF procedure ***
                           *** Shutting down DIIS ***
                      *** Re-Reading the Fockian *** 
                      *** Removing any level shift *** 
ITER      Energy       Delta-E        Grad      Rot      Max-DP    RMS-DP
  6   -910.77818760  -0.0000629080  0.000861  0.000861  0.002096  0.000041
               *** Restarting incremental Fock matrix formation ***
  7   -910.77820296  -0.0000153621  0.000290  0.000761  0.001327  0.000023
  8   -910.77820374  -0.0000007800  0.000645  0.000600  0.000585  0.000010
  9   -910.77820709  -0.0000033437  0.000052  0.000184  0.000175  0.000004
 10   -910.77820719  -0.0000001063  0.000022  0.000098  0.000074  0.000002
 11   -910.77820723  -0.0000000396  0.000017  0.000022  0.000022  0.000001
 12   -910.77820724  -0.0000000049  0.000003  0.000006  0.000016  0.000000
                 **** Energy Check signals convergence ****
              ***Rediagonalizing the Fockian in SOSCF/NRSCF***

               *****************************************************
               *                     SUCCESS                       *
               *           SCF CONVERGED AFTER  13 CYCLES          *
               *****************************************************

Setting up the final grid:

General Integration Accuracy     IntAcc      ...  4.670
Radial Grid Type                 RadialGrid  ... Gauss-Chebyshev
Angular Grid (max. acc.)         AngularGrid ... Lebedev-302
Angular grid pruning method      GridPruning ... 3 (G Style)
Weight generation scheme         WeightScheme... Becke
Basis function cutoff            BFCut       ...    1.0000e-11
Integration weight cutoff        WCut        ...    1.0000e-14
Grids for H and He will be reduced by one unit

# of grid points (after initial pruning)     ... 130118 (   0.1 sec)
# of grid points (after weights+screening)   ... 116591 (   0.5 sec)
nearest neighbour list constructed           ...    0.0 sec
Grid point re-assignment to atoms done       ...    0.0 sec
Grid point division into batches done        ...    0.4 sec
Reduced shell lists constructed in    1.2 sec

Total number of grid points                  ...   116591
Total number of batches                      ...     1838
Average number of points per batch           ...       63
Average number of grid points per atom       ...     4664
Average number of shells per batch           ...    60.31 (49.03%)
Average number of basis functions per batch  ...   125.90 (46.80%)
Average number of large shells per batch     ...    42.45 (70.39%)
Average number of large basis fcns per batch ...    88.04 (69.93%)
Maximum spatial batch extension              ...  19.02, 19.28, 21.29 au
Average spatial batch extension              ...   2.32,  2.32,  2.41 au

Final grid set up in    1.8 sec
Final integration                            ... done (   1.9 sec)
Change in XC energy                          ...     0.002940386
Integrated number of electrons               ...   119.999908011
Previous integrated no of electrons          ...   120.004592748

----------------
TOTAL SCF ENERGY
----------------

Total Energy       :         -910.77526685 Eh          -24783.45498 eV

Components:
Nuclear Repulsion  :         1108.37372414 Eh           30160.38236 eV
Electronic Energy  :        -2019.14899099 Eh          -54943.83734 eV
One Electron Energy:        -3450.75529697 Eh          -93899.82541 eV
Two Electron Energy:         1431.60630597 Eh           38955.98807 eV

Virial components:
Potential Energy   :        -1814.33890279 Eh          -49370.67150 eV
Kinetic Energy     :          903.56363594 Eh           24587.21652 eV
Virial Ratio       :            2.00798132


DFT components:
N(Alpha)           :       59.999954005568 electrons
N(Beta)            :       59.999954005568 electrons
N(Total)           :      119.999908011136 electrons
E(XC)              :      -80.101904728963 Eh       
DFET-embed. en.    :        0.000000000000 Eh       

---------------
SCF CONVERGENCE
---------------

  Last Energy change         ...    5.3706e-10  Tolerance :   1.0000e-08
  Last MAX-Density change    ...    3.0644e-06  Tolerance :   1.0000e-07
  Last RMS-Density change    ...    7.6620e-08  Tolerance :   5.0000e-09
  Last Orbital Gradient      ...    1.2790e-06  Tolerance :   1.0000e-05
  Last Orbital Rotation      ...    5.4677e-06  Tolerance :   1.0000e-05

             **** THE GBW FILE WAS UPDATED (019622775.gbw) ****
             **** DENSITY FILE WAS UPDATED (019622775.scfp) ****
             **** ENERGY FILE WAS UPDATED (019622775.en.tmp) ****
             **** THE GBW FILE WAS UPDATED (019622775.gbw) ****
             **** DENSITY FILE WAS UPDATED (019622775.scfp) ****
----------------
ORBITAL ENERGIES
----------------

  NO   OCC          E(Eh)            E(eV) 
   0   2.0000     -24.837720      -675.8687 
   1   2.0000     -24.836104      -675.8248 
   2   2.0000     -24.833855      -675.7636 
   3   2.0000     -19.305386      -525.3263 
   4   2.0000     -19.285726      -524.7913 
   5   2.0000     -19.221473      -523.0429 
   6   2.0000     -10.549172      -287.0576 
   7   2.0000     -10.420617      -283.5594 
   8   2.0000     -10.391091      -282.7560 
   9   2.0000     -10.378986      -282.4266 
  10   2.0000     -10.321083      -280.8509 
  11   2.0000     -10.319437      -280.8061 
  12   2.0000     -10.316706      -280.7318 
  13   2.0000     -10.316249      -280.7194 
  14   2.0000     -10.315904      -280.7100 
  15   2.0000     -10.312408      -280.6149 
  16   2.0000      -1.434413       -39.0324 
  17   2.0000      -1.337233       -36.3879 
  18   2.0000      -1.335931       -36.3525 
  19   2.0000      -1.210599       -32.9421 
  20   2.0000      -1.210277       -32.9333 
  21   2.0000      -1.124090       -30.5881 
  22   2.0000      -1.005429       -27.3591 
  23   2.0000      -0.933533       -25.4027 
  24   2.0000      -0.899197       -24.4684 
  25   2.0000      -0.886821       -24.1316 
  26   2.0000      -0.833707       -22.6863 
  27   2.0000      -0.794175       -21.6106 
  28   2.0000      -0.752211       -20.4687 
  29   2.0000      -0.735717       -20.0199 
  30   2.0000      -0.722000       -19.6466 
  31   2.0000      -0.715203       -19.4617 
  32   2.0000      -0.713387       -19.4123 
  33   2.0000      -0.694725       -18.9044 
  34   2.0000      -0.659645       -17.9499 
  35   2.0000      -0.631719       -17.1899 
  36   2.0000      -0.628851       -17.1119 
  37   2.0000      -0.602874       -16.4050 
  38   2.0000      -0.589277       -16.0350 
  39   2.0000      -0.585464       -15.9313 
  40   2.0000      -0.578898       -15.7526 
  41   2.0000      -0.571549       -15.5526 
  42   2.0000      -0.559670       -15.2294 
  43   2.0000      -0.554368       -15.0851 
  44   2.0000      -0.544846       -14.8260 
  45   2.0000      -0.543310       -14.7842 
  46   2.0000      -0.539698       -14.6859 
  47   2.0000      -0.538307       -14.6481 
  48   2.0000      -0.523120       -14.2348 
  49   2.0000      -0.505909       -13.7665 
  50   2.0000      -0.502076       -13.6622 
  51   2.0000      -0.487134       -13.2556 
  52   2.0000      -0.475626       -12.9425 
  53   2.0000      -0.473273       -12.8784 
  54   2.0000      -0.451399       -12.2832 
  55   2.0000      -0.448396       -12.2015 
  56   2.0000      -0.414669       -11.2837 
  57   2.0000      -0.375679       -10.2228 
  58   2.0000      -0.370717       -10.0877 
  59   2.0000      -0.329260        -8.9596 
  60   0.0000       0.036001         0.9796 
  61   0.0000       0.051287         1.3956 
  62   0.0000       0.101945         2.7741 
  63   0.0000       0.132280         3.5995 
  64   0.0000       0.140210         3.8153 
  65   0.0000       0.154730         4.2104 
  66   0.0000       0.167559         4.5595 
  67   0.0000       0.172951         4.7062 
  68   0.0000       0.179968         4.8972 
  69   0.0000       0.185535         5.0487 
  70   0.0000       0.214116         5.8264 
  71   0.0000       0.222218         6.0469 
  72   0.0000       0.231611         6.3024 
  73   0.0000       0.243944         6.6381 
  74   0.0000       0.267396         7.2762 
  75   0.0000       0.275873         7.5069 
  76   0.0000       0.281999         7.6736 
  77   0.0000       0.298512         8.1229 
  78   0.0000       0.306408         8.3378 
  79   0.0000       0.312517         8.5040 
  80   0.0000       0.327587         8.9141 
  81   0.0000       0.356658         9.7052 
  82   0.0000       0.370653        10.0860 
  83   0.0000       0.376368        10.2415 
  84   0.0000       0.392468        10.6796 
  85   0.0000       0.402246        10.9457 
  86   0.0000       0.441043        12.0014 
  87   0.0000       0.451786        12.2937 
  88   0.0000       0.456241        12.4150 
  89   0.0000       0.472494        12.8572 
  90   0.0000       0.495707        13.4889 
  91   0.0000       0.498969        13.5776 
  92   0.0000       0.521645        14.1947 
  93   0.0000       0.532414        14.4877 
  94   0.0000       0.537989        14.6394 
  95   0.0000       0.553889        15.0721 
  96   0.0000       0.557506        15.1705 
  97   0.0000       0.566189        15.4068 
  98   0.0000       0.571807        15.5596 
  99   0.0000       0.585474        15.9316 
 100   0.0000       0.598599        16.2887 
 101   0.0000       0.613256        16.6876 
 102   0.0000       0.619714        16.8633 
 103   0.0000       0.627880        17.0855 
 104   0.0000       0.636336        17.3156 
 105   0.0000       0.638108        17.3638 
 106   0.0000       0.656462        17.8632 
 107   0.0000       0.665900        18.1201 
 108   0.0000       0.699137        19.0245 
 109   0.0000       0.706157        19.2155 
 110   0.0000       0.719506        19.5787 
 111   0.0000       0.725183        19.7332 
 112   0.0000       0.733314        19.9545 
 113   0.0000       0.746637        20.3170 
 114   0.0000       0.755425        20.5561 
 115   0.0000       0.759971        20.6799 
 116   0.0000       0.768670        20.9166 
 117   0.0000       0.779196        21.2030 
 118   0.0000       0.787445        21.4275 
 119   0.0000       0.790636        21.5143 
 120   0.0000       0.798920        21.7397 
 121   0.0000       0.812077        22.0977 
 122   0.0000       0.831064        22.6144 
 123   0.0000       0.836701        22.7678 
 124   0.0000       0.854028        23.2393 
 125   0.0000       0.877175        23.8691 
 126   0.0000       0.894481        24.3401 
 127   0.0000       0.912290        24.8247 
 128   0.0000       0.926272        25.2051 
 129   0.0000       0.944448        25.6997 
 130   0.0000       0.998007        27.1572 
 131   0.0000       1.019754        27.7489 
 132   0.0000       1.069940        29.1145 
 133   0.0000       1.074524        29.2393 
 134   0.0000       1.087187        29.5839 
 135   0.0000       1.095163        29.8009 
 136   0.0000       1.136657        30.9300 
 137   0.0000       1.144711        31.1492 
 138   0.0000       1.157075        31.4856 
 139   0.0000       1.172372        31.9019 
 140   0.0000       1.199515        32.6405 
 141   0.0000       1.215844        33.0848 
 142   0.0000       1.231196        33.5026 
 143   0.0000       1.246854        33.9286 
 144   0.0000       1.248867        33.9834 
 145   0.0000       1.279919        34.8284 
 146   0.0000       1.296517        35.2800 
 147   0.0000       1.310717        35.6664 
 148   0.0000       1.314905        35.7804 
 149   0.0000       1.329471        36.1767 
 150   0.0000       1.344286        36.5799 
 151   0.0000       1.368625        37.2422 
 152   0.0000       1.377210        37.4758 
 153   0.0000       1.385692        37.7066 
 154   0.0000       1.397928        38.0396 
 155   0.0000       1.422389        38.7052 
 156   0.0000       1.431952        38.9654 
 157   0.0000       1.438822        39.1523 
 158   0.0000       1.473971        40.1088 
 159   0.0000       1.517633        41.2969 
 160   0.0000       1.533135        41.7187 
 161   0.0000       1.536944        41.8224 
 162   0.0000       1.552814        42.2542 
 163   0.0000       1.567015        42.6406 
 164   0.0000       1.573937        42.8290 
 165   0.0000       1.603085        43.6221 
 166   0.0000       1.610438        43.8223 
 167   0.0000       1.640002        44.6267 
 168   0.0000       1.658055        45.1180 
 169   0.0000       1.702775        46.3349 
 170   0.0000       1.719898        46.8008 
 171   0.0000       1.722569        46.8735 
 172   0.0000       1.743296        47.4375 
 173   0.0000       1.759538        47.8795 
 174   0.0000       1.799257        48.9603 
 175   0.0000       1.804289        49.0972 
 176   0.0000       1.806778        49.1649 
 177   0.0000       1.814887        49.3856 
 178   0.0000       1.827836        49.7380 
 179   0.0000       1.835415        49.9442 
 180   0.0000       1.844445        50.1899 
 181   0.0000       1.850677        50.3595 
 182   0.0000       1.857473        50.5444 
 183   0.0000       1.880418        51.1688 
 184   0.0000       1.894035        51.5393 
 185   0.0000       1.904238        51.8170 
 186   0.0000       1.907041        51.8932 
 187   0.0000       1.914308        52.0910 
 188   0.0000       1.936102        52.6840 
 189   0.0000       1.962565        53.4041 
 190   0.0000       1.969341        53.5885 
 191   0.0000       1.983368        53.9702 
 192   0.0000       1.989853        54.1467 
 193   0.0000       2.016407        54.8692 
 194   0.0000       2.023676        55.0670 
 195   0.0000       2.035164        55.3796 
 196   0.0000       2.053370        55.8750 
 197   0.0000       2.059795        56.0499 
 198   0.0000       2.065088        56.1939 
 199   0.0000       2.099812        57.1388 
 200   0.0000       2.102085        57.2007 
 201   0.0000       2.138378        58.1882 
 202   0.0000       2.167355        58.9767 
 203   0.0000       2.170998        59.0759 
 204   0.0000       2.194454        59.7141 
 205   0.0000       2.212885        60.2157 
 206   0.0000       2.246759        61.1374 
 207   0.0000       2.260350        61.5073 
 208   0.0000       2.278316        61.9961 
 209   0.0000       2.302418        62.6520 
 210   0.0000       2.328389        63.3587 
 211   0.0000       2.361207        64.2517 
 212   0.0000       2.368810        64.4586 
 213   0.0000       2.388793        65.0024 
 214   0.0000       2.394147        65.1481 
 215   0.0000       2.406812        65.4927 
 216   0.0000       2.430894        66.1480 
 217   0.0000       2.456269        66.8385 
 218   0.0000       2.466621        67.1202 
 219   0.0000       2.485110        67.6233 
 220   0.0000       2.506745        68.2120 
 221   0.0000       2.547279        69.3150 
 222   0.0000       2.630799        71.5877 
 223   0.0000       2.669040        72.6283 
 224   0.0000       2.713546        73.8393 
 225   0.0000       2.727211        74.2112 
 226   0.0000       2.746364        74.7324 
 227   0.0000       2.755042        74.9685 
 228   0.0000       2.774795        75.5060 
 229   0.0000       2.819132        76.7125 
 230   0.0000       2.831976        77.0620 
 231   0.0000       2.840948        77.3061 
 232   0.0000       2.901044        78.9414 
 233   0.0000       2.917124        79.3790 
 234   0.0000       2.939686        79.9929 
 235   0.0000       2.973448        80.9116 
 236   0.0000       2.982275        81.1518 
 237   0.0000       2.988327        81.3165 
 238   0.0000       3.021055        82.2071 
 239   0.0000       3.066105        83.4330 
 240   0.0000       3.090358        84.0929 
 241   0.0000       3.105214        84.4972 
 242   0.0000       3.112923        84.7070 
 243   0.0000       3.116376        84.8009 
 244   0.0000       3.129867        85.1680 
 245   0.0000       3.132414        85.2373 
 246   0.0000       3.141041        85.4721 
 247   0.0000       3.141805        85.4929 
 248   0.0000       3.143844        85.5483 
 249   0.0000       3.167501        86.1921 
 250   0.0000       3.190935        86.8298 
 251   0.0000       3.220786        87.6420 
 252   0.0000       3.267832        88.9222 
 253   0.0000       3.270416        88.9925 
 254   0.0000       3.312162        90.1285 
 255   0.0000       3.319301        90.3228 
 256   0.0000       3.462156        94.2101 
 257   0.0000       3.486325        94.8677 
 258   0.0000       3.522336        95.8476 
 259   0.0000       3.539616        96.3179 
 260   0.0000       3.575057        97.2822 
 261   0.0000       3.640636        99.0667 
 262   0.0000       3.665849        99.7528 
 263   0.0000       3.756711       102.2253 
 264   0.0000       3.766612       102.4947 
 265   0.0000       3.802555       103.4728 
 266   0.0000       3.921825       106.7183 
 267   0.0000       3.949320       107.4664 
 268   0.0000       3.955848       107.6441 

                    ********************************
                    * MULLIKEN POPULATION ANALYSIS *
                    ********************************

-----------------------
MULLIKEN ATOMIC CHARGES
-----------------------
   0 C :   -0.076442
   1 C :   -0.016408
   2 C :    0.230046
   3 C :   -0.082555
   4 C :    0.003980
   5 C :   -0.131471
   6 C :    0.040049
   7 H :    0.056717
   8 C :    0.152624
   9 O :   -0.203538
  10 O :   -0.183564
  11 H :    0.188726
  12 H :    0.070777
  13 H :    0.017816
  14 H :    0.009700
  15 O :   -0.337828
  16 C :    0.130327
  17 H :    0.065206
  18 C :    0.470542
  19 F :   -0.171305
  20 F :   -0.171559
  21 F :   -0.183330
  22 H :    0.078432
  23 H :    0.021963
  24 H :    0.021094
Sum of atomic charges:   -0.0000000

--------------------------------
MULLIKEN REDUCED ORBITAL CHARGES
--------------------------------
  0 C s       :     3.206503  s :     3.206503
      pz      :     0.989505  p :     2.833781
      px      :     0.923849
      py      :     0.920427
      dz2     :     0.003104  d :     0.036159
      dxz     :     0.005839
      dyz     :     0.006342
      dx2y2   :     0.009741
      dxy     :     0.011132
  1 C s       :     3.219236  s :     3.219236
      pz      :     0.992718  p :     2.763718
      px      :     0.903295
      py      :     0.867705
      dz2     :     0.004423  d :     0.033454
      dxz     :     0.006142
      dyz     :     0.004031
      dx2y2   :     0.008334
      dxy     :     0.010524
  2 C s       :     2.945396  s :     2.945396
      pz      :     0.964111  p :     2.750267
      px      :     0.803461
      py      :     0.982695
      dz2     :     0.008606  d :     0.074290
      dxz     :     0.014286
      dyz     :     0.010411
      dx2y2   :     0.020359
      dxy     :     0.020627
  3 C s       :     3.213172  s :     3.213172
      pz      :     1.003549  p :     2.835436
      px      :     0.930056
      py      :     0.901831
      dz2     :     0.003161  d :     0.033947
      dxz     :     0.005354
      dyz     :     0.005618
      dx2y2   :     0.009319
      dxy     :     0.010495
  4 C s       :     3.191376  s :     3.191376
      pz      :     0.961467  p :     2.768549
      px      :     0.919638
      py      :     0.887444
      dz2     :     0.004779  d :     0.036095
      dxz     :     0.006740
      dyz     :     0.003969
      dx2y2   :     0.010649
      dxy     :     0.009960
  5 C s       :     3.060475  s :     3.060475
      pz      :     1.018943  p :     3.026776
      px      :     1.006655
      py      :     1.001178
      dz2     :     0.004903  d :     0.044220
      dxz     :     0.006597
      dyz     :     0.007550
      dx2y2   :     0.012926
      dxy     :     0.012243
  6 C s       :     2.987976  s :     2.987976
      pz      :     1.023869  p :     2.940141
      px      :     0.898279
      py      :     1.017993
      dz2     :     0.004297  d :     0.031834
      dxz     :     0.009506
      dyz     :     0.005265
      dx2y2   :     0.008149
      dxy     :     0.004617
  7 H s       :     0.920791  s :     0.920791
      pz      :     0.004839  p :     0.022492
      px      :     0.003552
      py      :     0.014102
  8 C s       :     3.078757  s :     3.078757
      pz      :     0.883487  p :     2.627352
      px      :     0.904274
      py      :     0.839590
      dz2     :     0.018156  d :     0.141267
      dxz     :     0.025605
      dyz     :     0.031009
      dx2y2   :     0.041709
      dxy     :     0.024787
  9 O s       :     3.718134  s :     3.718134
      pz      :     1.604192  p :     4.465809
      px      :     1.389185
      py      :     1.472433
      dz2     :     0.002384  d :     0.019595
      dxz     :     0.002769
      dyz     :     0.002782
      dx2y2   :     0.005425
      dxy     :     0.006234
 10 O s       :     3.666237  s :     3.666237
      pz      :     1.648083  p :     4.503485
      px      :     1.505086
      py      :     1.350316
      dz2     :     0.002354  d :     0.013842
      dxz     :     0.002436
      dyz     :     0.004384
      dx2y2   :     0.002456
      dxy     :     0.002212
 11 H s       :     0.740414  s :     0.740414
      pz      :     0.017425  p :     0.070860
      px      :     0.031493
      py      :     0.021941
 12 H s       :     0.905637  s :     0.905637
      pz      :     0.010289  p :     0.023585
      px      :     0.005472
      py      :     0.007825
 13 H s       :     0.958548  s :     0.958548
      pz      :     0.004630  p :     0.023636
      px      :     0.004593
      py      :     0.014413
 14 H s       :     0.966117  s :     0.966117
      pz      :     0.006730  p :     0.024183
      px      :     0.008040
      py      :     0.009412
 15 O s       :     3.730663  s :     3.730663
      pz      :     1.712231  p :     4.590444
      px      :     1.268747
      py      :     1.609465
      dz2     :     0.002199  d :     0.016721
      dxz     :     0.002620
      dyz     :     0.002754
      dx2y2   :     0.002949
      dxy     :     0.006199
 16 C s       :     3.023680  s :     3.023680
      pz      :     0.981460  p :     2.784637
      px      :     0.865422
      py      :     0.937755
      dz2     :     0.006293  d :     0.061357
      dxz     :     0.014566
      dyz     :     0.014211
      dx2y2   :     0.008526
      dxy     :     0.017761
 17 H s       :     0.912382  s :     0.912382
      pz      :     0.008629  p :     0.022411
      px      :     0.004523
      py      :     0.009260
 18 C s       :     2.989423  s :     2.989423
      pz      :     0.826978  p :     2.355080
      px      :     0.769796
      py      :     0.758306
      dz2     :     0.026252  d :     0.184955
      dxz     :     0.040771
      dyz     :     0.044904
      dx2y2   :     0.029536
      dxy     :     0.043493
 19 F s       :     3.891872  s :     3.891872
      pz      :     1.775231  p :     5.271107
      px      :     1.784504
      py      :     1.711372
      dz2     :     0.001100  d :     0.008326
      dxz     :     0.001622
      dyz     :     0.002240
      dx2y2   :     0.001245
      dxy     :     0.002119
 20 F s       :     3.891627  s :     3.891627
      pz      :     1.715557  p :     5.271436
      px      :     1.823831
      py      :     1.732048
      dz2     :     0.001372  d :     0.008496
      dxz     :     0.001641
      dyz     :     0.002788
      dx2y2   :     0.001142
      dxy     :     0.001552
 21 F s       :     3.893642  s :     3.893642
      pz      :     1.839460  p :     5.281458
      px      :     1.657738
      py      :     1.784261
      dz2     :     0.001003  d :     0.008229
      dxz     :     0.001988
      dyz     :     0.001117
      dx2y2   :     0.001529
      dxy     :     0.002592
 22 H s       :     0.899880  s :     0.899880
      pz      :     0.006809  p :     0.021688
      px      :     0.007211
      py      :     0.007668
 23 H s       :     0.954317  s :     0.954317
      pz      :     0.004647  p :     0.023719
      px      :     0.004884
      py      :     0.014189
 24 H s       :     0.955532  s :     0.955532
      pz      :     0.007133  p :     0.023374
      px      :     0.007518
      py      :     0.008723


                     *******************************
                     * LOEWDIN POPULATION ANALYSIS *
                     *******************************

----------------------
LOEWDIN ATOMIC CHARGES
----------------------
   0 C :   -0.042717
   1 C :   -0.035288
   2 C :    0.059139
   3 C :   -0.060938
   4 C :   -0.005096
   5 C :   -0.060952
   6 C :   -0.062789
   7 H :    0.051018
   8 C :    0.082724
   9 O :   -0.163216
  10 O :   -0.036699
  11 H :    0.088583
  12 H :    0.051595
  13 H :    0.037272
  14 H :    0.031029
  15 O :   -0.098352
  16 C :    0.044872
  17 H :    0.032440
  18 C :    0.149200
  19 F :   -0.058003
  20 F :   -0.056426
  21 F :   -0.068891
  22 H :    0.049124
  23 H :    0.040372
  24 H :    0.031998

-------------------------------
LOEWDIN REDUCED ORBITAL CHARGES
-------------------------------
  0 C s       :     2.851582  s :     2.851582
      pz      :     0.996467  p :     3.095969
      px      :     1.051860
      py      :     1.047642
      dz2     :     0.007139  d :     0.095166
      dxz     :     0.013527
      dyz     :     0.014669
      dx2y2   :     0.027664
      dxy     :     0.032167
  1 C s       :     2.852783  s :     2.852783
      pz      :     1.001927  p :     3.093232
      px      :     1.050771
      py      :     1.040533
      dz2     :     0.009798  d :     0.089274
      dxz     :     0.015448
      dyz     :     0.009357
      dx2y2   :     0.024694
      dxy     :     0.029977
  2 C s       :     2.834722  s :     2.834722
      pz      :     0.970906  p :     2.935348
      px      :     0.883385
      py      :     1.081057
      dz2     :     0.017734  d :     0.170791
      dxz     :     0.029515
      dyz     :     0.023046
      dx2y2   :     0.047906
      dxy     :     0.052589
  3 C s       :     2.849073  s :     2.849073
      pz      :     1.019326  p :     3.121551
      px      :     1.059823
      py      :     1.042402
      dz2     :     0.007166  d :     0.090313
      dxz     :     0.012470
      dyz     :     0.012857
      dx2y2   :     0.027179
      dxy     :     0.030641
  4 C s       :     2.847531  s :     2.847531
      pz      :     0.977895  p :     3.062683
      px      :     1.042270
      py      :     1.042519
      dz2     :     0.010624  d :     0.094882
      dxz     :     0.016608
      dyz     :     0.009321
      dx2y2   :     0.030193
      dxy     :     0.028136
  5 C s       :     2.845431  s :     2.845431
      pz      :     1.000251  p :     3.104325
      px      :     1.029291
      py      :     1.074784
      dz2     :     0.010978  d :     0.111196
      dxz     :     0.014357
      dyz     :     0.017506
      dx2y2   :     0.035079
      dxy     :     0.033276
  6 C s       :     2.838295  s :     2.838295
      pz      :     1.051101  p :     3.138971
      px      :     1.011745
      py      :     1.076124
      dz2     :     0.011412  d :     0.085523
      dxz     :     0.025769
      dyz     :     0.014058
      dx2y2   :     0.023005
      dxy     :     0.011280
  7 H s       :     0.880657  s :     0.880657
      pz      :     0.016032  p :     0.068325
      px      :     0.011752
      py      :     0.040540
  8 C s       :     2.854025  s :     2.854025
      pz      :     0.912838  p :     2.758524
      px      :     0.945150
      py      :     0.900536
      dz2     :     0.038354  d :     0.304727
      dxz     :     0.056042
      dyz     :     0.067556
      dx2y2   :     0.086512
      dxy     :     0.056263
  9 O s       :     3.534886  s :     3.534886
      pz      :     1.604955  p :     4.595657
      px      :     1.459488
      py      :     1.531214
      dz2     :     0.004401  d :     0.032673
      dxz     :     0.004330
      dyz     :     0.003994
      dx2y2   :     0.006977
      dxy     :     0.012970
 10 O s       :     3.412519  s :     3.412519
      pz      :     1.658513  p :     4.597043
      px      :     1.541313
      py      :     1.397217
      dz2     :     0.003303  d :     0.027137
      dxz     :     0.003607
      dyz     :     0.009119
      dx2y2   :     0.005431
      dxy     :     0.005678
 11 H s       :     0.729091  s :     0.729091
      pz      :     0.047746  p :     0.182326
      px      :     0.081912
      py      :     0.052668
 12 H s       :     0.879225  s :     0.879225
      pz      :     0.030277  p :     0.069181
      px      :     0.016845
      py      :     0.022059
 13 H s       :     0.893503  s :     0.893503
      pz      :     0.014236  p :     0.069225
      px      :     0.014340
      py      :     0.040649
 14 H s       :     0.896682  s :     0.896682
      pz      :     0.020806  p :     0.072289
      px      :     0.023460
      py      :     0.028023
 15 O s       :     3.423699  s :     3.423699
      pz      :     1.706383  p :     4.643276
      px      :     1.308647
      py      :     1.628246
      dz2     :     0.003718  d :     0.031378
      dxz     :     0.005565
      dyz     :     0.003987
      dx2y2   :     0.006284
      dxy     :     0.011824
 16 C s       :     2.850939  s :     2.850939
      pz      :     1.017545  p :     2.960433
      px      :     0.935790
      py      :     1.007098
      dz2     :     0.012416  d :     0.143755
      dxz     :     0.035356
      dyz     :     0.037122
      dx2y2   :     0.016885
      dxy     :     0.041977
 17 H s       :     0.898490  s :     0.898490
      pz      :     0.027452  p :     0.069071
      px      :     0.013863
      py      :     0.027756
 18 C s       :     2.865501  s :     2.865501
      pz      :     0.903222  p :     2.602175
      px      :     0.857772
      py      :     0.841181
      dz2     :     0.047420  d :     0.383123
      dxz     :     0.089603
      dyz     :     0.097969
      dx2y2   :     0.054062
      dxy     :     0.094069
 19 F s       :     3.728732  s :     3.728732
      pz      :     1.788394  p :     5.316108
      px      :     1.795378
      py      :     1.732336
      dz2     :     0.001384  d :     0.013162
      dxz     :     0.002663
      dyz     :     0.003853
      dx2y2   :     0.001654
      dxy     :     0.003609
 20 F s       :     3.726654  s :     3.726654
      pz      :     1.736551  p :     5.316364
      px      :     1.828034
      py      :     1.751779
      dz2     :     0.001777  d :     0.013408
      dxz     :     0.002665
      dyz     :     0.004860
      dx2y2   :     0.001595
      dxy     :     0.002510
 21 F s       :     3.730796  s :     3.730796
      pz      :     1.843763  p :     5.325179
      px      :     1.685555
      py      :     1.795861
      dz2     :     0.001540  d :     0.012917
      dxz     :     0.003223
      dyz     :     0.001763
      dx2y2   :     0.001995
      dxy     :     0.004396
 22 H s       :     0.884645  s :     0.884645
      pz      :     0.020530  p :     0.066230
      px      :     0.022721
      py      :     0.022980
 23 H s       :     0.888582  s :     0.888582
      pz      :     0.015080  p :     0.071045
      px      :     0.015117
      py      :     0.040848
 24 H s       :     0.898368  s :     0.898368
      pz      :     0.020926  p :     0.069633
      px      :     0.022562
      py      :     0.026146


                      *****************************
                      * MAYER POPULATION ANALYSIS *
                      *****************************

  NA   - Mulliken gross atomic population
  ZA   - Total nuclear charge
  QA   - Mulliken gross atomic charge
  VA   - Mayer's total valence
  BVA  - Mayer's bonded valence
  FA   - Mayer's free valence

  ATOM       NA         ZA         QA         VA         BVA        FA
  0 C      6.0764     6.0000    -0.0764     3.8747     3.8747    -0.0000
  1 C      6.0164     6.0000    -0.0164     3.8914     3.8914     0.0000
  2 C      5.7700     6.0000     0.2300     3.8679     3.8679    -0.0000
  3 C      6.0826     6.0000    -0.0826     3.8625     3.8625    -0.0000
  4 C      5.9960     6.0000     0.0040     3.9105     3.9105     0.0000
  5 C      6.1315     6.0000    -0.1315     3.8667     3.8667    -0.0000
  6 C      5.9600     6.0000     0.0400     3.7951     3.7951    -0.0000
  7 H      0.9433     1.0000     0.0567     1.0096     1.0096    -0.0000
  8 C      5.8474     6.0000     0.1526     4.4092     4.4092     0.0000
  9 O      8.2035     8.0000    -0.2035     2.2843     2.2843    -0.0000
 10 O      8.1836     8.0000    -0.1836     2.2298     2.2298    -0.0000
 11 H      0.8113     1.0000     0.1887     1.0338     1.0338     0.0000
 12 H      0.9292     1.0000     0.0708     0.9892     0.9892     0.0000
 13 H      0.9822     1.0000     0.0178     0.9935     0.9935    -0.0000
 14 H      0.9903     1.0000     0.0097     1.0052     1.0052    -0.0000
 15 O      8.3378     8.0000    -0.3378     2.1434     2.1434    -0.0000
 16 C      5.8697     6.0000     0.1303     3.9156     3.9156     0.0000
 17 H      0.9348     1.0000     0.0652     0.9934     0.9934     0.0000
 18 C      5.5295     6.0000     0.4705     4.4401     4.4401    -0.0000
 19 F      9.1713     9.0000    -0.1713     1.1751     1.1751     0.0000
 20 F      9.1716     9.0000    -0.1716     1.1705     1.1705     0.0000
 21 F      9.1833     9.0000    -0.1833     1.1577     1.1577     0.0000
 22 H      0.9216     1.0000     0.0784     0.9973     0.9973    -0.0000
 23 H      0.9780     1.0000     0.0220     1.0013     1.0013    -0.0000
 24 H      0.9789     1.0000     0.0211     0.9935     0.9935    -0.0000

  Mayer bond orders larger than 0.100000
B(  0-C ,  1-C ) :   1.4028 B(  0-C ,  5-C ) :   1.3494 B(  0-C , 24-H ) :   0.9926 
B(  1-C ,  2-C ) :   1.3858 B(  1-C , 23-H ) :   0.9982 B(  2-C ,  3-C ) :   1.3249 
B(  2-C , 15-O ) :   1.0600 B(  3-C ,  4-C ) :   1.3954 B(  3-C , 14-H ) :   0.9951 
B(  4-C ,  5-C ) :   1.4044 B(  4-C , 13-H ) :   0.9942 B(  5-C ,  6-C ) :   1.0114 
B(  6-C ,  7-H ) :   0.9312 B(  6-C ,  8-C ) :   0.9716 B(  6-C , 12-H ) :   0.9289 
B(  8-C ,  9-O ) :   2.1634 B(  8-C , 10-O ) :   1.1940 B( 10-O , 11-H ) :   0.9469 
B( 15-O , 16-C ) :   0.9799 B( 16-C , 17-H ) :   0.9365 B( 16-C , 18-C ) :   1.0031 
B( 16-C , 22-H ) :   0.9381 B( 18-C , 19-F ) :   1.1264 B( 18-C , 20-F ) :   1.1395 
B( 18-C , 21-F ) :   1.1128 

-------
TIMINGS
-------

Total SCF time: 0 days 0 hours 3 min 54 sec 

Total time                  ....     234.974 sec
Sum of individual times     ....     234.724 sec  ( 99.9%)

Fock matrix formation       ....     231.591 sec  ( 98.6%)
  XC integration            ....       9.233 sec  (  4.0% of F)
    Basis function eval.    ....       2.636 sec  ( 28.5% of XC)
    Density eval.           ....       1.709 sec  ( 18.5% of XC)
    XC-Functional eval.     ....       2.269 sec  ( 24.6% of XC)
    XC-Potential eval.      ....       2.364 sec  ( 25.6% of XC)
Diagonalization             ....       0.079 sec  (  0.0%)
Density matrix formation    ....       0.021 sec  (  0.0%)
Population analysis         ....       0.009 sec  (  0.0%)
Initial guess               ....       0.774 sec  (  0.3%)
Orbital Transformation      ....       0.000 sec  (  0.0%)
Orbital Orthonormalization  ....       0.000 sec  (  0.0%)
DIIS solution               ....       0.029 sec  (  0.0%)
SOSCF solution              ....       0.051 sec  (  0.0%)
Grid generation             ....       2.170 sec  (  0.9%)


-------------------------------------------------------------------------------
                          DFT DISPERSION CORRECTION                            
                                                                               
                              DFTD3 V3.1  Rev 1                                
                              USING zero damping                               
-------------------------------------------------------------------------------
The omegaB97X-D3 functional is recognized. Fit by Chai et al.
Active option DFTDOPT                   ...         3   

molecular C6(AA) [au] = 6579.247288 


            DFT-D V3
 parameters
 s6 scaling factor         :     1.0000 
 rs6 scaling factor        :     1.2810 
 s8 scaling factor         :     1.0000 
 rs8 scaling factor        :     1.0940 
 Damping factor alpha6     :    14.0000 
 Damping factor alpha8     :    16.0000 
 ad hoc parameters k1-k3   :    16.0000     1.3333    -4.0000 

 Edisp/kcal,au: -6.345662311930  -0.010112455504 
 E6   /kcal   :  -2.747400362 
 E8   /kcal   :  -3.598261950 
 % E8         :  56.704277234 

-------------------------   ----------------
Dispersion correction           -0.010112456
-------------------------   ----------------


-------------------------   --------------------
FINAL SINGLE POINT ENERGY      -910.785379306659
-------------------------   --------------------

------------------------------------------------------------------------------
                         ORCA SCF GRADIENT CALCULATION
------------------------------------------------------------------------------

Gradient of the Kohn-Sham DFT energy:
Kohn-Sham wavefunction type      ... RKS
Hartree-Fock exchange scaling    ...    0.196
Number of operators              ...    1
Number of atoms                  ...   25
Basis set dimensions             ...  269
Integral neglect threshold       ... 2.5e-11
Integral primitive cutoff        ... 2.5e-12

Nuclear repulsion gradient       ... done
One Electron Gradient            ... done
Pre-screening matrix             ... done
Starting the two electron gradient:
Two electron gradient done
Exchange-correlation gradient    ... done
Dispersion correction            ... done

------------------
CARTESIAN GRADIENT
------------------

   1   C   :    0.002650451    0.003298862    0.000167917
   2   C   :    0.002736324    0.001868357   -0.002692905
   3   C   :    0.009193568   -0.010020739   -0.002401620
   4   C   :    0.003212762   -0.000529617   -0.002029705
   5   C   :   -0.000160135   -0.004399639    0.001011326
   6   C   :   -0.004131627    0.001825705    0.004485616
   7   C   :   -0.001107243   -0.002158904   -0.008960483
   8   H   :   -0.002155628    0.004253417    0.001871085
   9   C   :    0.003544747    0.000402157    0.004993628
  10   O   :   -0.002561450    0.000429702   -0.001961146
  11   O   :   -0.001990705   -0.003809389   -0.002586421
  12   H   :   -0.002337875    0.005295057   -0.000950043
  13   H   :   -0.001896579   -0.002299341    0.005344037
  14   H   :   -0.002577030    0.009507972   -0.001543170
  15   H   :    0.006294159    0.005491055   -0.003322104
  16   O   :   -0.006981234    0.007276738    0.003146442
  17   C   :    0.003125851    0.001781764    0.011021365
  18   H   :   -0.000724410    0.002007386   -0.003221780
  19   C   :    0.007650181    0.003275418    0.004139650
  20   F   :   -0.003409079   -0.002552166   -0.002621926
  21   F   :   -0.003743870   -0.001856418   -0.003794965
  22   F   :   -0.004468961   -0.003774672   -0.003863482
  23   H   :    0.001894120    0.000241249   -0.002225538
  24   H   :    0.003649771   -0.009242117    0.001273607
  25   H   :   -0.005706108   -0.006311836    0.004720615

Difference to translation invariance:
           :    0.0000000000    0.0000000000   -0.0000000000

Norm of the cartesian gradient     ...    0.0373821607
RMS gradient                       ...    0.0043165201
MAX gradient                       ...    0.0110213651

-------
TIMINGS
-------

Total SCF gradient time            ...       85.965 sec

One electron gradient       ....       0.308 sec  (  0.4%)
Prescreening matrices       ....       0.147 sec  (  0.2%)
Two electron gradient       ....      77.527 sec  ( 90.2%)
XC gradient                 ....       7.827 sec  (  9.1%)
------------------------------------------------------------------------------
                         ORCA GEOMETRY RELAXATION STEP
------------------------------------------------------------------------------

Reading the OPT-File                    .... done
Getting information on internals        .... done
Copying old internal coords+grads       .... done
Making the new internal coordinates     .... (new redundants).... done
Validating the new internal coordinates .... (new redundants).... done
Calculating the B-matrix                .... done
Calculating the G,G- and P matrices     .... done
Transforming gradient to internals      .... done
Projecting the internal gradient        .... done
Number of atoms                         ....  25
Number of internal coordinates          .... 118
Current Energy                          ....  -910.785379307 Eh
Current gradient norm                   ....     0.037382161 Eh/bohr
Maximum allowed component of the step   ....  0.300
Current trust radius                    ....  0.300
Evaluating the initial hessian          ....  (Almloef) done
Projecting the Hessian                  .... done
Forming the augmented Hessian           .... done
Diagonalizing the augmented Hessian     .... done
Last element of RFO vector              ....  0.979047577
Lowest eigenvalues of augmented Hessian:
 -0.004604199  0.010513151  0.010734944  0.013088973  0.016099543
Length of the computed step             ....  0.207989517
The final length of the internal step   ....  0.207989517
Converting the step to cartesian space:
 Initial RMS(Int)=    0.0191469870
Transforming coordinates:
 Iter   0:  RMS(Cart)=    0.0675554786 RMS(Int)=    0.5778916863
 Iter   1:  RMS(Cart)=    0.0017397363 RMS(Int)=    0.0009417402
 Iter   2:  RMS(Cart)=    0.0001208166 RMS(Int)=    0.0000443793
 Iter   3:  RMS(Cart)=    0.0000086461 RMS(Int)=    0.0000053531
 Iter   4:  RMS(Cart)=    0.0000006675 RMS(Int)=    0.0000003113
 Iter   5:  RMS(Cart)=    0.0000000528 RMS(Int)=    0.0000000363
done
Storing new coordinates                 .... done

                                .--------------------.
          ----------------------|Geometry convergence|-------------------------
          Item                value                   Tolerance       Converged
          ---------------------------------------------------------------------
          RMS gradient        0.0037855529            0.0001000000      NO
          MAX gradient        0.0103174335            0.0003000000      NO
          RMS step            0.0191469870            0.0020000000      NO
          MAX step            0.0623761513            0.0040000000      NO
          ........................................................
          Max(Bonds)      0.0139      Max(Angles)    1.79
          Max(Dihed)        3.57      Max(Improp)    0.00
          ---------------------------------------------------------------------

The optimization has not yet converged - more geometry cycles are needed


    ---------------------------------------------------------------------------
                         Redundant Internal Coordinates
                            (Angstroem and degrees)

        Definition                    Value    dE/dq     Step     New-Value
    ----------------------------------------------------------------------------
     1. B(C   1,C   0)                1.3797 -0.010317  0.0083    1.3880   
     2. B(C   2,C   1)                1.3930 -0.004020  0.0033    1.3964   
     3. B(C   3,C   2)                1.3881 -0.006199  0.0051    1.3932   
     4. B(C   4,C   3)                1.3842 -0.010159  0.0084    1.3926   
     5. B(C   5,C   4)                1.3878 -0.008457  0.0071    1.3949   
     6. B(C   5,C   0)                1.3935 -0.009276  0.0080    1.4015   
     7. B(C   6,C   5)                1.5004 -0.007878  0.0099    1.5103   
     8. B(H   7,C   6)                1.0898 -0.004670  0.0068    1.0965   
     9. B(C   8,C   6)                1.5306 -0.002316  0.0032    1.5338   
    10. B(O   9,C   8)                1.1946 -0.002517  0.0012    1.1957   
    11. B(O  10,C   8)                1.3394 -0.000224  0.0002    1.3395   
    12. B(H  11,O  10)                0.9705  0.004995 -0.0052    0.9652   
    13. B(H  12,C   6)                1.0935 -0.005945  0.0087    1.1023   
    14. B(H  13,C   4)                1.0794 -0.009961  0.0139    1.0933   
    15. B(H  14,C   3)                1.0780 -0.008901  0.0124    1.0904   
    16. B(O  15,C   2)                1.3762  0.009032 -0.0081    1.3682   
    17. B(C  16,O  15)                1.3938  0.000059 -0.0001    1.3938   
    18. B(H  17,C  16)                1.0965 -0.003686  0.0055    1.1019   
    19. B(C  18,C  16)                1.5354  0.008722 -0.0124    1.5230   
    20. B(F  19,C  18)                1.3382  0.001248 -0.0010    1.3372   
    21. B(F  20,C  18)                1.3343  0.002792 -0.0023    1.3320   
    22. B(F  21,C  18)                1.3429  0.003689 -0.0031    1.3398   
    23. B(H  22,C  16)                1.0950 -0.002129  0.0031    1.0981   
[...]
      py      :     1.001375
      dz2     :     0.004622  d :     0.042929
      dxz     :     0.006276
      dyz     :     0.007028
      dx2y2   :     0.012724
      dxy     :     0.012279
  6 C s       :     2.981995  s :     2.981995
      pz      :     1.026412  p :     2.948107
      px      :     0.886025
      py      :     1.035670
      dz2     :     0.003976  d :     0.031503
      dxz     :     0.009460
      dyz     :     0.005364
      dx2y2   :     0.007843
      dxy     :     0.004861
  7 H s       :     0.906895  s :     0.906895
      pz      :     0.005783  p :     0.022560
      px      :     0.003609
      py      :     0.013168
  8 C s       :     3.085200  s :     3.085200
      pz      :     0.879397  p :     2.628537
      px      :     0.926059
      py      :     0.823081
      dz2     :     0.020818  d :     0.141161
      dxz     :     0.040763
      dyz     :     0.026265
      dx2y2   :     0.031794
      dxy     :     0.021520
  9 O s       :     3.724103  s :     3.724103
      pz      :     1.697743  p :     4.471175
      px      :     1.356659
      py      :     1.416773
      dz2     :     0.002297  d :     0.019526
      dxz     :     0.003399
      dyz     :     0.001249
      dx2y2   :     0.006135
      dxy     :     0.006445
 10 O s       :     3.669484  s :     3.669484
      pz      :     1.563899  p :     4.495771
      px      :     1.379394
      py      :     1.552478
      dz2     :     0.004003  d :     0.014173
      dxz     :     0.002519
      dyz     :     0.003978
      dx2y2   :     0.002315
      dxy     :     0.001359
 11 H s       :     0.734746  s :     0.734746
      pz      :     0.015574  p :     0.070950
      px      :     0.035249
      py      :     0.020127
 12 H s       :     0.900471  s :     0.900471
      pz      :     0.009247  p :     0.023395
      px      :     0.005617
      py      :     0.008531
 13 H s       :     0.951019  s :     0.951019
      pz      :     0.004553  p :     0.022998
      px      :     0.004388
      py      :     0.014056
 14 H s       :     0.954808  s :     0.954808
      pz      :     0.006210  p :     0.023803
      px      :     0.008231
      py      :     0.009361
 15 O s       :     3.721204  s :     3.721204
      pz      :     1.648717  p :     4.590489
      px      :     1.287408
      py      :     1.654364
      dz2     :     0.002363  d :     0.016850
      dxz     :     0.002950
      dyz     :     0.003110
      dx2y2   :     0.003025
      dxy     :     0.005402
 16 C s       :     3.028121  s :     3.028121
      pz      :     0.945566  p :     2.791610
      px      :     0.888978
      py      :     0.957066
      dz2     :     0.007601  d :     0.061345
      dxz     :     0.015689
      dyz     :     0.014126
      dx2y2   :     0.006591
      dxy     :     0.017339
 17 H s       :     0.913878  s :     0.913878
      pz      :     0.008872  p :     0.022665
      px      :     0.005642
      py      :     0.008152
 18 C s       :     2.974985  s :     2.974985
      pz      :     0.779594  p :     2.358285
      px      :     0.797293
      py      :     0.781397
      dz2     :     0.027139  d :     0.188137
      dxz     :     0.044857
      dyz     :     0.046245
      dx2y2   :     0.027798
      dxy     :     0.042098
 19 F s       :     3.891569  s :     3.891569
      pz      :     1.772975  p :     5.272196
      px      :     1.803939
      py      :     1.695282
      dz2     :     0.001089  d :     0.008364
      dxz     :     0.001485
      dyz     :     0.002435
      dx2y2   :     0.001310
      dxy     :     0.002045
 20 F s       :     3.890241  s :     3.890241
      pz      :     1.723946  p :     5.267993
      px      :     1.777256
      py      :     1.766790
      dz2     :     0.001315  d :     0.008623
      dxz     :     0.002118
      dyz     :     0.002319
      dx2y2   :     0.001103
      dxy     :     0.001768
 21 F s       :     3.891887  s :     3.891887
      pz      :     1.755282  p :     5.277710
      px      :     1.722638
      py      :     1.799790
      dz2     :     0.001213  d :     0.008397
      dxz     :     0.002441
      dyz     :     0.001632
      dx2y2   :     0.001174
      dxy     :     0.001937
 22 H s       :     0.900851  s :     0.900851
      pz      :     0.006721  p :     0.021674
      px      :     0.006601
      py      :     0.008353
 23 H s       :     0.946545  s :     0.946545
      pz      :     0.004645  p :     0.023139
      px      :     0.004687
      py      :     0.013806
 24 H s       :     0.950762  s :     0.950762
      pz      :     0.006292  p :     0.022605
      px      :     0.007660
      py      :     0.008653


                     *******************************
                     * LOEWDIN POPULATION ANALYSIS *
                     *******************************

----------------------
LOEWDIN ATOMIC CHARGES
----------------------
   0 C :   -0.026221
   1 C :   -0.044562
   2 C :    0.058116
   3 C :   -0.071238
   4 C :   -0.009490
   5 C :   -0.078268
   6 C :   -0.067853
   7 H :    0.056327
   8 C :    0.081226
   9 O :   -0.168385
  10 O :   -0.034020
  11 H :    0.087486
  12 H :    0.057308
  13 H :    0.039083
  14 H :    0.033504
  15 O :   -0.090018
  16 C :    0.041825
  17 H :    0.033848
  18 C :    0.141661
  19 F :   -0.056633
  20 F :   -0.050563
  21 F :   -0.061370
  22 H :    0.047780
  23 H :    0.043444
  24 H :    0.037012

-------------------------------
LOEWDIN REDUCED ORBITAL CHARGES
-------------------------------
  0 C s       :     2.859899  s :     2.859899
      pz      :     0.979915  p :     3.073904
      px      :     1.048920
      py      :     1.045069
      dz2     :     0.006600  d :     0.092417
      dxz     :     0.013584
      dyz     :     0.013153
      dx2y2   :     0.027398
      dxy     :     0.031683
  1 C s       :     2.859688  s :     2.859688
      pz      :     1.009733  p :     3.098276
      px      :     1.051290
      py      :     1.037253
      dz2     :     0.008698  d :     0.086598
      dxz     :     0.014992
      dyz     :     0.008419
      dx2y2   :     0.024141
      dxy     :     0.030348
  2 C s       :     2.835808  s :     2.835808
      pz      :     0.970983  p :     2.931621
      px      :     0.881007
      py      :     1.079630
      dz2     :     0.016636  d :     0.174455
      dxz     :     0.030066
      dyz     :     0.021019
      dx2y2   :     0.052113
      dxy     :     0.054621
  3 C s       :     2.856513  s :     2.856513
      pz      :     1.026982  p :     3.127420
      px      :     1.060771
      py      :     1.039667
      dz2     :     0.006641  d :     0.087305
      dxz     :     0.011969
      dyz     :     0.011230
      dx2y2   :     0.027078
      dxy     :     0.030387
  4 C s       :     2.857137  s :     2.857137
      pz      :     0.973958  p :     3.059970
      px      :     1.046087
      py      :     1.039925
      dz2     :     0.009567  d :     0.092384
      dxz     :     0.016609
      dyz     :     0.008357
      dx2y2   :     0.029835
      dxy     :     0.028016
  5 C s       :     2.852672  s :     2.852672
      pz      :     1.011355  p :     3.117903
      px      :     1.033358
      py      :     1.073191
      dz2     :     0.010439  d :     0.107693
      dxz     :     0.013515
      dyz     :     0.016145
      dx2y2   :     0.034228
      dxy     :     0.033365
  6 C s       :     2.843225  s :     2.843225
      pz      :     1.054660  p :     3.140393
      px      :     1.007487
      py      :     1.078246
      dz2     :     0.010692  d :     0.084234
      dxz     :     0.025338
      dyz     :     0.014513
      dx2y2   :     0.022008
      dxy     :     0.011683
  7 H s       :     0.876113  s :     0.876113
      pz      :     0.018573  p :     0.067560
      px      :     0.011418
      py      :     0.037569
  8 C s       :     2.856119  s :     2.856119
      pz      :     0.925319  p :     2.759613
      px      :     0.980946
      py      :     0.853348
      dz2     :     0.045265  d :     0.303041
      dxz     :     0.089650
      dyz     :     0.057083
      dx2y2   :     0.063156
      dxy     :     0.047888
  9 O s       :     3.535679  s :     3.535679
      pz      :     1.690552  p :     4.600200
      px      :     1.458854
      py      :     1.450794
      dz2     :     0.004720  d :     0.032506
      dxz     :     0.004806
      dyz     :     0.001778
      dx2y2   :     0.008808
      dxy     :     0.012395
 10 O s       :     3.414563  s :     3.414563
      pz      :     1.594756  p :     4.591888
      px      :     1.441596
      py      :     1.555536
      dz2     :     0.007012  d :     0.027568
      dxz     :     0.004144
      dyz     :     0.007619
      dx2y2   :     0.005026
      dxy     :     0.003767
 11 H s       :     0.728334  s :     0.728334
      pz      :     0.041684  p :     0.184180
      px      :     0.091173
      py      :     0.051323
 12 H s       :     0.875101  s :     0.875101
      pz      :     0.027196  p :     0.067591
      px      :     0.016930
      py      :     0.023466
 13 H s       :     0.893966  s :     0.893966
      pz      :     0.013905  p :     0.066951
      px      :     0.013489
      py      :     0.039556
 14 H s       :     0.895437  s :     0.895437
      pz      :     0.019438  p :     0.071059
      px      :     0.023903
      py      :     0.027718
 15 O s       :     3.414007  s :     3.414007
      pz      :     1.654344  p :     4.644095
      px      :     1.327712
      py      :     1.662039
      dz2     :     0.004182  d :     0.031915
      dxz     :     0.006260
      dyz     :     0.004674
      dx2y2   :     0.006487
      dxy     :     0.010313
 16 C s       :     2.851601  s :     2.851601
      pz      :     0.988581  p :     2.962396
      px      :     0.957307
      py      :     1.016508
      dz2     :     0.014862  d :     0.144178
      dxz     :     0.037974
      dyz     :     0.036634
      dx2y2   :     0.012526
      dxy     :     0.042182
 17 H s       :     0.897517  s :     0.897517
      pz      :     0.027949  p :     0.068634
      px      :     0.016726
      py      :     0.023959
 18 C s       :     2.856724  s :     2.856724
      pz      :     0.864295  p :     2.610830
      px      :     0.883960
      py      :     0.862574
      dz2     :     0.048625  d :     0.390785
      dxz     :     0.099153
      dyz     :     0.100821
      dx2y2   :     0.049493
      dxy     :     0.092693
 19 F s       :     3.727103  s :     3.727103
      pz      :     1.786540  p :     5.316311
      px      :     1.811359
      py      :     1.718412
      dz2     :     0.001333  d :     0.013219
      dxz     :     0.002395
      dyz     :     0.004235
      dx2y2   :     0.001823
      dxy     :     0.003433
 20 F s       :     3.723735  s :     3.723735
      pz      :     1.744463  p :     5.313195
      px      :     1.787651
      py      :     1.781081
      dz2     :     0.001639  d :     0.013633
      dxz     :     0.003636
      dyz     :     0.003947
      dx2y2   :     0.001458
      dxy     :     0.002952
 21 F s       :     3.726960  s :     3.726960
      pz      :     1.771598  p :     5.321201
      px      :     1.741203
      py      :     1.808400
      dz2     :     0.001678  d :     0.013209
      dxz     :     0.004168
      dyz     :     0.002689
      dx2y2   :     0.001447
      dxy     :     0.003228
 22 H s       :     0.886252  s :     0.886252
      pz      :     0.020435  p :     0.065968
      px      :     0.020665
      py      :     0.024868
 23 H s       :     0.887631  s :     0.887631
      pz      :     0.014880  p :     0.068925
      px      :     0.014433
      py      :     0.039612
 24 H s       :     0.895976  s :     0.895976
      pz      :     0.018734  p :     0.067012
      px      :     0.022526
      py      :     0.025752


                      *****************************
                      * MAYER POPULATION ANALYSIS *
                      *****************************

  NA   - Mulliken gross atomic population
  ZA   - Total nuclear charge
  QA   - Mulliken gross atomic charge
  VA   - Mayer's total valence
  BVA  - Mayer's bonded valence
  FA   - Mayer's free valence

  ATOM       NA         ZA         QA         VA         BVA        FA
  0 C      6.0395     6.0000    -0.0395     3.8793     3.8793    -0.0000
  1 C      6.0321     6.0000    -0.0321     3.8764     3.8764    -0.0000
  2 C      5.7783     6.0000     0.2217     3.8825     3.8825    -0.0000
  3 C      6.0971     6.0000    -0.0971     3.8623     3.8623     0.0000
  4 C      5.9990     6.0000     0.0010     3.8972     3.8972    -0.0000
  5 C      6.1816     6.0000    -0.1816     3.8411     3.8411     0.0000
  6 C      5.9616     6.0000     0.0384     3.7559     3.7559    -0.0000
  7 H      0.9295     1.0000     0.0705     1.0055     1.0055    -0.0000
  8 C      5.8549     6.0000     0.1451     4.4064     4.4064    -0.0000
  9 O      8.2148     8.0000    -0.2148     2.2710     2.2710    -0.0000
 10 O      8.1794     8.0000    -0.1794     2.2398     2.2398    -0.0000
 11 H      0.8057     1.0000     0.1943     1.0239     1.0239    -0.0000
 12 H      0.9239     1.0000     0.0761     0.9947     0.9947    -0.0000
 13 H      0.9740     1.0000     0.0260     0.9925     0.9925     0.0000
 14 H      0.9786     1.0000     0.0214     1.0091     1.0091    -0.0000
 15 O      8.3285     8.0000    -0.3285     2.1506     2.1506    -0.0000
 16 C      5.8811     6.0000     0.1189     3.9088     3.9088     0.0000
 17 H      0.9365     1.0000     0.0635     0.9987     0.9987    -0.0000
 18 C      5.5214     6.0000     0.4786     4.4563     4.4563    -0.0000
 19 F      9.1721     9.0000    -0.1721     1.1770     1.1770    -0.0000
 20 F      9.1669     9.0000    -0.1669     1.1765     1.1765    -0.0000
 21 F      9.1780     9.0000    -0.1780     1.1655     1.1655    -0.0000
 22 H      0.9225     1.0000     0.0775     0.9973     0.9973    -0.0000
 23 H      0.9697     1.0000     0.0303     0.9996     0.9996    -0.0000
 24 H      0.9734     1.0000     0.0266     0.9933     0.9933    -0.0000

  Mayer bond orders larger than 0.100000
B(  0-C ,  1-C ) :   1.4040 B(  0-C ,  5-C ) :   1.3617 B(  0-C , 24-H ) :   0.9920 
B(  1-C ,  2-C ) :   1.3790 B(  1-C , 23-H ) :   0.9943 B(  2-C ,  3-C ) :   1.3258 
B(  2-C , 15-O ) :   1.0717 B(  3-C ,  4-C ) :   1.3993 B(  3-C , 14-H ) :   0.9886 
B(  4-C ,  5-C ) :   1.3907 B(  4-C , 13-H ) :   0.9910 B(  5-C ,  6-C ) :   0.9887 
B(  6-C ,  7-H ) :   0.9339 B(  6-C ,  8-C ) :   0.9633 B(  6-C , 12-H ) :   0.9288 
B(  8-C ,  9-O ) :   2.1423 B(  8-C , 10-O ) :   1.2124 B( 10-O , 11-H ) :   0.9465 
B( 15-O , 16-C ) :   0.9700 B( 16-C , 17-H ) :   0.9367 B( 16-C , 18-C ) :   1.0093 
B( 16-C , 22-H ) :   0.9375 B( 18-C , 19-F ) :   1.1271 B( 18-C , 20-F ) :   1.1453 
B( 18-C , 21-F ) :   1.1189 

-------
TIMINGS
-------

Total SCF time: 0 days 0 hours 2 min 0 sec 

Total time                  ....     120.781 sec
Sum of individual times     ....     120.514 sec  ( 99.8%)

Fock matrix formation       ....     118.165 sec  ( 97.8%)
  XC integration            ....       5.830 sec  (  4.9% of F)
    Basis function eval.    ....       1.742 sec  ( 29.9% of XC)
    Density eval.           ....       1.115 sec  ( 19.1% of XC)
    XC-Functional eval.     ....       1.508 sec  ( 25.9% of XC)
    XC-Potential eval.      ....       1.290 sec  ( 22.1% of XC)
Diagonalization             ....       0.011 sec  (  0.0%)
Density matrix formation    ....       0.013 sec  (  0.0%)
Population analysis         ....       0.010 sec  (  0.0%)
Initial guess               ....       0.011 sec  (  0.0%)
Orbital Transformation      ....       0.000 sec  (  0.0%)
Orbital Orthonormalization  ....       0.008 sec  (  0.0%)
DIIS solution               ....       0.003 sec  (  0.0%)
SOSCF solution              ....       0.055 sec  (  0.0%)
Grid generation             ....       2.247 sec  (  1.9%)


-------------------------------------------------------------------------------
                          DFT DISPERSION CORRECTION                            
                                                                               
                              DFTD3 V3.1  Rev 1                                
                              USING zero damping                               
-------------------------------------------------------------------------------
The omegaB97X-D3 functional is recognized. Fit by Chai et al.
Active option DFTDOPT                   ...         3   

molecular C6(AA) [au] = 6585.845869 


            DFT-D V3
 parameters
 s6 scaling factor         :     1.0000 
 rs6 scaling factor        :     1.2810 
 s8 scaling factor         :     1.0000 
 rs8 scaling factor        :     1.0940 
 Damping factor alpha6     :    14.0000 
 Damping factor alpha8     :    16.0000 
 ad hoc parameters k1-k3   :    16.0000     1.3333    -4.0000 

 Edisp/kcal,au: -6.305176563504  -0.010047937364 
 E6   /kcal   :  -2.729262941 
 E8   /kcal   :  -3.575913622 
 % E8         :  56.713933165 

-------------------------   ----------------
Dispersion correction           -0.010047937
-------------------------   ----------------


-------------------------   --------------------
FINAL SINGLE POINT ENERGY      -910.789044052239
-------------------------   --------------------

                                *** OPTIMIZATION RUN DONE ***

                            ***************************************
                            *     ORCA property calculations      *
                            ***************************************

                                    ---------------------
                                    Active property flags
                                    ---------------------
   (+) Dipole Moment


------------------------------------------------------------------------------
                       ORCA ELECTRIC PROPERTIES CALCULATION
------------------------------------------------------------------------------

Dipole Moment Calculation                       ... on
Quadrupole Moment Calculation                   ... off
Polarizability Calculation                      ... off
GBWName                                         ... 019622775.gbw
Electron density file                           ... 019622775.scfp
The origin for moment calculation is the CENTER OF MASS  = (-0.040415, -0.043027  0.047276)

-------------
DIPOLE MOMENT
-------------
                                X             Y             Z
Electronic contribution:    -20.57229      -3.23203       0.08167
Nuclear contribution   :     19.18685       3.88483      -0.02922
                        -----------------------------------------
Total Dipole Moment    :     -1.38543       0.65280       0.05245
                        -----------------------------------------
Magnitude (a.u.)       :      1.53243
Magnitude (Debye)      :      3.89512



--------------------
Rotational spectrum 
--------------------
 
Rotational constants in cm-1:     0.052932     0.006430     0.006216 
Rotational constants in MHz :  1586.876110   192.774007   186.342510 

 Dipole components along the rotational axes: 
x,y,z [a.u.] :    -1.385591    -0.627904     0.184946 
x,y,z [Debye]:    -3.521891    -1.596006     0.470094 

 

Timings for individual modules:

Sum of individual times         ...     3306.909 sec (=  55.115 min)
GTO integral calculation        ...        6.782 sec (=   0.113 min)   0.2 %
SCF iterations                  ...     2176.477 sec (=  36.275 min)  65.8 %
SCF Gradient evaluation         ...     1116.782 sec (=  18.613 min)  33.8 %
Geometry relaxation             ...        6.869 sec (=   0.114 min)   0.2 %
                             ****ORCA TERMINATED NORMALLY****
TOTAL RUN TIME: 0 days 0 hours 55 minutes 8 seconds 887 msec
