
                                 *****************
                                 * O   R   C   A *
                                 *****************

           --- An Ab Initio, DFT and Semiempirical electronic structure package ---

                  #######################################################
                  #                        -***-                        #
                  #          Department of theory and spectroscopy      #
                  #               Directorship: Frank Neese             #
                  #        Max Planck Institute fuer Kohlenforschung    #
                  #                Kaiser Wilhelm Platz 1               #
                  #                 D-45470 Muelheim/Ruhr               #
                  #                      Germany                        #
                  #                                                     #
                  #                  All rights reserved                #
                  #                        -***-                        #
                  #######################################################


                         Program Version 4.2.0 -  RELEASE  -


 With contributions from (in alphabetic order):
   Daniel Aravena         : Magnetic Suceptibility
   Michael Atanasov       : Ab Initio Ligand Field Theory (pilot matlab implementation)
   Alexander A. Auer      : GIAO ZORA, VPT2
   Ute Becker             : Parallelization
   Giovanni Bistoni       : ED, misc. LED, open-shell LED, HFLED
   Martin Brehm           : Molecular dynamics
   Dmytro Bykov           : SCF Hessian
   Vijay G. Chilkuri      : MRCI spin determinant printing, contributions to CSF-ICE
   Dipayan Datta          : RHF DLPNO-CCSD density
   Achintya Kumar Dutta   : EOM-CC, STEOM-CC
   Dmitry Ganyushin       : Spin-Orbit,Spin-Spin,Magnetic field MRCI
   Miquel Garcia          : C-PCM Hessian, Gaussian charge scheme
   Yang Guo               : DLPNO-NEVPT2, CIM, IAO-localization
   Andreas Hansen         : Spin unrestricted coupled pair/coupled cluster methods
   Benjamin Helmich-Paris : CASSCF linear response (MC-RPA)
   Lee Huntington         : MR-EOM, pCC
   Robert Izsak           : Overlap fitted RIJCOSX, COSX-SCS-MP3, EOM
   Christian Kollmar      : KDIIS, OOCD, Brueckner-CCSD(T), CCSD density
   Simone Kossmann        : Meta GGA functionals, TD-DFT gradient, OOMP2, MP2 Hessian
   Martin Krupicka        : AUTO-CI
   Lucas Lang             : DCDCAS
   Dagmar Lenk            : GEPOL surface, SMD
   Dimitrios Liakos       : Extrapolation schemes; Compound Job, initial MDCI parallelization
   Dimitrios Manganas     : Further ROCIS development; embedding schemes
   Dimitrios Pantazis     : SARC Basis sets
   Taras Petrenko         : DFT Hessian,TD-DFT gradient, ASA, ECA, R-Raman, ABS, FL, XAS/XES, NRVS
   Peter Pinski           : DLPNO-MP2, DLPNO-MP2 Gradient
   Christoph Reimann      : Effective Core Potentials
   Marius Retegan         : Local ZFS, SOC
   Christoph Riplinger    : Optimizer, TS searches, QM/MM, DLPNO-CCSD(T), (RO)-DLPNO pert. Triples
   Tobias Risthaus        : Range-separated hybrids, TD-DFT gradient, RPA, STAB
   Michael Roemelt        : Original ROCIS implementation
   Masaaki Saitow         : Open-shell DLPNO-CCSD energy and density
   Barbara Sandhoefer     : DKH picture change effects
   Avijit Sen             : IP-ROCIS
   Kantharuban Sivalingam : CASSCF convergence, NEVPT2, FIC-MRCI
   Bernardo de Souza      : ESD, SOC TD-DFT
   Georgi Stoychev        : AutoAux, RI-MP2 NMR
   Willem Van den Heuvel  : Paramagnetic NMR
   Boris Wezisla          : Elementary symmetry handling
   Frank Wennmohs         : Technical directorship


 We gratefully acknowledge several colleagues who have allowed us to
 interface, adapt or use parts of their codes:
   Stefan Grimme, W. Hujo, H. Kruse,             : VdW corrections, initial TS optimization,
                  C. Bannwarth                     DFT functionals, gCP, sTDA/sTD-DF
   Ed Valeev, F. Pavosevic, A. Kumar             : LibInt (2-el integral package), F12 methods
   Garnet Chan, S. Sharma, J. Yang, R. Olivares  : DMRG
   Ulf Ekstrom                                   : XCFun DFT Library
   Mihaly Kallay                                 : mrcc  (arbitrary order and MRCC methods)
   Andreas Klamt, Michael Diedenhofen            : otool_cosmo (COSMO solvation model)
   Jiri Pittner, Ondrej Demel                    : Mk-CCSD
   Frank Weinhold                                : gennbo (NPA and NBO analysis)
   Christopher J. Cramer and Donald G. Truhlar   : smd solvation model
   Lars Goerigk                                  : TD-DFT with DH, B97 family of functionals
   V. Asgeirsson, H. Jonsson                     : NEB implementation
   FAccTs GmbH                                   : IRC, NEB, NEB-TS, Multilevel, MM, QM/MM, CI optimization
   S Lehtola, MJT Oliveira, MAL Marques          : LibXC Library


 Your calculation uses the libint2 library for the computation of 2-el integrals
 For citations please refer to: http://libint.valeyev.net

 Your ORCA version has been built with support for libXC version: 4.2.3
 For citations please refer to: https://tddft.org/programs/libxc/

 This ORCA versions uses:
   CBLAS   interface :  Fast vector & matrix operations
   LAPACKE interface :  Fast linear algebra routines
   SCALAPACK package :  Parallel linear algebra routines


Your calculation utilizes the atom-pairwise dispersion correction
with the zero-damping scheme (D30)
Cite in your paper:
S.Grimme, J.Antony, S.Ehrlich and H.Krieg, J.Chem.Phys., 132, (2010), 154104 
   

XCFun DFT library Copyright 2009-2010 Ulf Ekstrom and contributors.
See http://admol.org/xcfun for more information. This is free soft-
ware; see the source code for copying conditions. There is ABSOLUTELY
NO WARRANTY; not even for MERCHANTABILITY or FITNESS FOR A PARTICULAR
PURPOSE. For details see the documentation. Scientific users of this 
library should cite U. Ekstrom, L. Visscher, R. Bast, A. J. Thorvald-
sen and K. Ruud; J.Chem.Theor.Comp. 2010, DOI: 10.1021/ct100117s
XCFun Version 0.99 
----- Orbital basis set information -----
Your calculation utilizes the basis: def2-SVP
   F. Weigend and R. Ahlrichs, Phys. Chem. Chem. Phys. 7, 3297 (2005).

================================================================================
                                        WARNINGS
                       Please study these warnings very carefully!
================================================================================


WARNING: Geometry Optimization
  ===> : Switching off AutoStart
         For restart on a previous wavefunction, please use MOREAD

INFO   : the flag for use of LIBINT has been found!

================================================================================
                                       INPUT FILE
================================================================================
NAME = 063354978.inp
|  1> # ORCA input file
|  2> # -47.32775933
|  3> ! wB97X-D3 def2-SVP Opt
|  4> * xyz 0 1
|  5>    C       -4.67310        -0.05810         0.69580
|  6>    C       -3.26430        -0.31500         0.26290
|  7>    C       -2.34140         0.71010         0.16570
|  8>    C       -1.03480         0.46410        -0.24680
|  9>    C       -0.60640        -0.82850        -0.56440
| 10>    C       -1.54200        -1.85070        -0.44680
| 11>    C       -2.84280        -1.60400        -0.05510
| 12>    H       -3.54330        -2.42320         0.01610
| 13>    H       -1.23860        -2.86340        -0.66900
| 14>    C        0.81000        -1.14000        -0.92630
| 15>    H        0.94380        -2.22050        -1.02330
| 16>    C        1.78760        -0.64580         0.14400
| 17>    O        1.41970        -0.24010         1.21970
| 18>    C        3.20590        -0.72700        -0.25500
| 19>    C        4.08520         0.44680         0.12870
| 20>    C        4.24200        -0.84370         0.84000
| 21>    H        5.10930        -1.45450         0.64130
| 22>    H        3.86300        -0.91230         1.84840
| 23>    H        4.83390         0.75520        -0.58410
| 24>    H        3.59790         1.25830         0.64610
| 25>    H        3.40280        -1.21000        -1.20220
| 26>    H        1.08650        -0.67270        -1.87320
| 27>    N       -0.16530         1.60700        -0.33740
| 28>    O       -0.47940         2.59950         0.28260
| 29>    O        0.81510         1.53720        -1.05300
| 30>    H       -2.61690         1.72630         0.40600
| 31>    H       -5.36820        -0.34180        -0.09330
| 32>    H       -4.82210         0.99170         0.93150
| 33>    H       -4.91080        -0.65170         1.57710
| 34> *
| 35> 
| 36>                          ****END OF INPUT****
================================================================================

                       *****************************
                       * Geometry Optimization Run *
                       *****************************

Geometry optimization settings:
Update method            Update   .... BFGS
Choice of coordinates    CoordSys .... Z-matrix Internals
Initial Hessian          InHess   .... Almoef's Model

Convergence Tolerances:
Energy Change            TolE     ....  5.0000e-06 Eh
Max. Gradient            TolMAXG  ....  3.0000e-04 Eh/bohr
RMS Gradient             TolRMSG  ....  1.0000e-04 Eh/bohr
Max. Displacement        TolMAXD  ....  4.0000e-03 bohr
RMS Displacement         TolRMSD  ....  2.0000e-03 bohr
Strict Convergence                ....  False
------------------------------------------------------------------------------
                        ORCA OPTIMIZATION COORDINATE SETUP
------------------------------------------------------------------------------

The optimization will be done in new redundant internal coordinates
Making redundant internal coordinates   ...  (new redundants) done
Evaluating the initial hessian          ...  (Almloef) done
Evaluating the coordinates              ...  done
Calculating the B-matrix                .... done
Calculating the G-matrix                .... done
Diagonalizing the G-matrix              .... done
Small eigenvalue found = 5.349e-03
Small eigenvalue found = 1.318e-02
The first mode is                       ....   79
The number of degrees of freedom        ....   81

    -----------------------------------------------------------------
                    Redundant Internal Coordinates


    -----------------------------------------------------------------
         Definition                    Initial Value    Approx d2E/dq
    -----------------------------------------------------------------
      1. B(C   1,C   0)                  1.4960         0.423222   
      2. B(C   2,C   1)                  1.3828         0.641640   
      3. B(C   3,C   2)                  1.3921         0.620049   
      4. B(C   4,C   3)                  1.3983         0.606059   
      5. B(C   5,C   4)                  1.3907         0.623173   
      6. B(C   6,C   5)                  1.3807         0.646479   
      7. B(C   6,C   1)                  1.3929         0.618064   
      8. B(H   7,C   6)                  1.0802         0.373284   
      9. B(H   8,C   5)                  1.0803         0.373203   
     10. B(C   9,C   4)                  1.4947         0.425267   
     11. B(H  10,C   9)                  1.0931         0.356068   
     12. B(C  11,C   9)                  1.5315         0.371528   
     13. B(O  12,C  11)                  1.2071         1.095701   
     14. B(C  13,C  11)                  1.4756         0.456229   
     15. B(C  14,C  13)                  1.5160         0.393317   
     16. B(C  15,C  14)                  1.4819         0.445834   
     17. B(C  15,C  13)                  1.5120         0.399111   
     18. B(H  16,C  15)                  1.0792         0.374614   
     19. B(H  17,C  15)                  1.0795         0.374327   
     20. B(H  18,C  14)                  1.0788         0.375266   
     21. B(H  19,C  14)                  1.0787         0.375297   
     22. B(H  20,C  13)                  1.0813         0.371772   
     23. B(H  21,C   9)                  1.0915         0.358080   
     24. B(N  22,C   3)                  1.4389         0.467568   
     25. B(O  23,N  22)                  1.2117         0.965041   
     26. B(O  24,N  22)                  1.2158         0.950511   
     27. B(H  25,C   2)                  1.0800         0.373634   
     28. B(H  26,C   0)                  1.0892         0.361177   
     29. B(H  27,C   0)                  1.0862         0.365159   
     30. B(H  28,C   0)                  1.0888         0.361650   
     31. A(H  27,C   0,H  28)          108.7427         0.291675   
     32. A(H  26,C   0,H  28)          107.7629         0.291172   
     33. A(C   1,C   0,H  27)          110.9733         0.331825   
     34. A(C   1,C   0,H  28)          110.2534         0.331295   
     35. A(H  26,C   0,H  27)          108.7480         0.291615   
     36. A(C   1,C   0,H  26)          110.2796         0.331223   
     37. A(C   0,C   1,C   2)          121.4364         0.407965   
     38. A(C   0,C   1,C   6)          120.6583         0.405273   
     39. A(C   2,C   1,C   6)          117.9053         0.436510   
     40. A(C   1,C   2,H  25)          120.7753         0.357196   
     41. A(C   3,C   2,H  25)          118.1418         0.355127   
     42. A(C   1,C   2,C   3)          121.0827         0.436762   
     43. A(C   2,C   3,N  22)          116.4534         0.410059   
     44. A(C   2,C   3,C   4)          121.2132         0.432301   
     45. A(C   4,C   3,N  22)          122.3311         0.408405   
     46. A(C   3,C   4,C   9)          122.5451         0.404216   
     47. A(C   5,C   4,C   9)          120.3177         0.406209   
     48. A(C   3,C   4,C   5)          117.0099         0.432691   
     49. A(C   4,C   5,C   6)          121.7674         0.437750   
     50. A(C   6,C   5,H   8)          119.3703         0.357583   
     51. A(C   4,C   5,H   8)          118.8623         0.355360   
     52. A(C   5,C   6,H   7)          119.6135         0.357596   
     53. A(C   1,C   6,H   7)          119.3735         0.354877   
     54. A(C   1,C   6,C   5)          121.0101         0.437101   
     55. A(C   4,C   9,H  10)          110.0893         0.330707   
     56. A(C  11,C   9,H  21)          107.8431         0.323727   
     57. A(H  10,C   9,H  21)          108.3730         0.290069   
     58. A(C   4,C   9,H  21)          111.1529         0.331015   
     59. A(H  10,C   9,C  11)          107.6296         0.323428   
     60. A(C   4,C   9,C  11)          111.6186         0.371167   
     61. A(O  12,C  11,C  13)          123.5325         0.452193   
     62. A(C   9,C  11,C  13)          114.0051         0.375691   
     63. A(C   9,C  11,O  12)          122.4587         0.435697   
     64. A(C  14,C  13,C  15)           58.6008         0.370753   
     65. A(C  11,C  13,C  15)          117.8441         0.380376   
     66. A(C  11,C  13,C  14)          116.5164         0.379413   
     67. A(C  15,C  13,H  20)          118.3676         0.329598   
     68. A(C  14,C  13,H  20)          117.5129         0.328803   
     69. A(C  11,C  13,H  20)          115.8786         0.336993   
     70. A(C  13,C  14,H  18)          117.1722         0.329311   
     71. A(C  13,C  14,C  15)           60.5654         0.377902   
     72. A(H  18,C  14,H  19)          114.5428         0.294648   
     73. A(C  15,C  14,H  19)          118.2091         0.336230   
     74. A(C  13,C  14,H  19)          116.2219         0.329316   
     75. A(C  15,C  14,H  18)          119.5175         0.336226   
     76. A(H  16,C  15,H  17)          114.7196         0.294447   
     77. A(C  14,C  15,H  17)          117.8139         0.336086   
     78. A(C  13,C  15,H  17)          116.1580         0.329971   
     79. A(C  14,C  15,H  16)          119.3094         0.336128   
     80. A(C  13,C  15,H  16)          117.4534         0.330013   
     81. A(C  13,C  15,C  14)           60.8338         0.378860   
     82. A(O  23,N  22,O  24)          123.8657         0.495347   
     83. A(C   3,N  22,O  24)          118.6033         0.436799   
     84. A(C   3,N  22,O  23)          117.5001         0.437995   
     85. D(C   2,C   1,C   0,H  26)    118.9457         0.013239   
     86. D(C   2,C   1,C   0,H  27)     -1.6250         0.013239   
     87. D(C   6,C   1,C   0,H  26)    -61.0925         0.013239   
     88. D(C   6,C   1,C   0,H  27)    178.3368         0.013239   
     89. D(C   6,C   1,C   0,H  28)     57.7901         0.013239   
     90. D(C   2,C   1,C   0,H  28)   -122.1717         0.013239   
     91. D(H  25,C   2,C   1,C   6)   -179.6820         0.028614   
     92. D(C   3,C   2,C   1,C   0)   -179.5516         0.028614   
     93. D(H  25,C   2,C   1,C   0)      0.2808         0.028614   
     94. D(C   3,C   2,C   1,C   6)      0.4856         0.028614   
     95. D(N  22,C   3,C   2,C   1)    178.8289         0.026604   
     96. D(C   4,C   3,C   2,H  25)    179.5291         0.026604   
     97. D(N  22,C   3,C   2,H  25)     -1.0077         0.026604   
     98. D(C   4,C   3,C   2,C   1)     -0.6342         0.026604   
     99. D(C   5,C   4,C   3,C   2)     -0.1114         0.025349   
    100. D(C   9,C   4,C   3,C   2)   -176.0170         0.025349   
    101. D(C   9,C   4,C   3,N  22)      4.5518         0.025349   
    102. D(C   5,C   4,C   3,N  22)   -179.5426         0.025349   
    103. D(H   8,C   5,C   4,C   9)     -3.0019         0.026889   
    104. D(C   6,C   5,C   4,C   9)    177.0072         0.026889   
    105. D(C   6,C   5,C   4,C   3)      1.0053         0.026889   
    106. D(H   8,C   5,C   4,C   3)   -179.0038         0.026889   
    107. D(H   7,C   6,C   5,H   8)     -0.5437         0.029077   
    108. D(H   7,C   6,C   5,C   4)    179.4471         0.029077   
    109. D(C   1,C   6,C   5,H   8)    178.8321         0.029077   
    110. D(C   1,C   6,C   5,C   4)     -1.1771         0.029077   
    111. D(H   7,C   6,C   1,C   2)    179.7781         0.026424   
    112. D(H   7,C   6,C   1,C   0)     -0.1851         0.026424   
    113. D(C   5,C   6,C   1,C   2)      0.4008         0.026424   
    114. D(C   5,C   6,C   1,C   0)   -179.5623         0.026424   
    115. D(H  10,C   9,C   4,C   3)    173.5477         0.013364   
    116. D(H  21,C   9,C   4,C   5)    117.8653         0.013364   
    117. D(H  21,C   9,C   4,C   3)    -66.3607         0.013364   
    118. D(C  11,C   9,C   4,C   5)   -121.6871         0.013364   
    119. D(C  11,C   9,C   4,C   3)     54.0870         0.013364   
    120. D(H  10,C   9,C   4,C   5)     -2.2264         0.013364   
    121. D(C  13,C  11,C   9,H  21)    -48.2398         0.010331   
    122. D(C  13,C  11,C   9,H  10)     68.4873         0.010331   
    123. D(C  13,C  11,C   9,C   4)   -170.6072         0.010331   
    124. D(O  12,C  11,C   9,H  21)    132.4332         0.010331   
    125. D(O  12,C  11,C   9,H  10)   -110.8396         0.010331   
    126. D(O  12,C  11,C   9,C   4)     10.0658         0.010331   
    127. D(H  20,C  13,C  11,O  12)    173.4831         0.015347   
    128. D(H  20,C  13,C  11,C   9)     -5.8356         0.015347   
    129. D(C  15,C  13,C  11,O  12)     24.8913         0.015347   
    130. D(C  15,C  13,C  11,C   9)   -154.4274         0.015347   
    131. D(C  14,C  13,C  11,O  12)    -41.8469         0.015347   
    132. D(C  14,C  13,C  11,C   9)    138.8344         0.015347   
    133. D(H  19,C  14,C  13,H  20)    142.8664         0.012290   
    134. D(H  19,C  14,C  13,C  11)     -1.2146         0.012290   
    135. D(H  18,C  14,C  13,H  20)      2.2164         0.012290   
    136. D(H  18,C  14,C  13,C  15)    110.2577         0.012290   
    137. D(H  18,C  14,C  13,C  11)   -141.8647         0.012290   
    138. D(H  19,C  14,C  13,C  15)   -109.0922         0.012290   
    139. D(C  15,C  14,C  13,H  20)   -108.0413         0.012290   
    140. D(C  15,C  14,C  13,C  11)    107.8777         0.012290   
    141. D(H  17,C  15,C  13,C  11)      3.1243         0.012640   
    142. D(H  16,C  15,C  13,H  20)     -3.3989         0.012640   
    143. D(H  16,C  15,C  13,C  14)   -109.9861         0.012640   
    144. D(H  16,C  15,C  13,C  11)    144.4021         0.012640   
    145. D(C  14,C  15,C  13,H  20)    106.5872         0.012640   
    146. D(H  17,C  15,C  13,C  14)    108.7360         0.012640   
    147. D(C  14,C  15,C  13,C  11)   -105.6118         0.012640   
    148. D(H  17,C  15,C  14,H  19)     -0.1986         0.015702   
    149. D(H  17,C  15,C  14,C  13)   -106.0440         0.015702   
    150. D(H  16,C  15,C  14,H  19)   -147.1672         0.015702   
    151. D(H  16,C  15,C  14,H  18)      0.5429         0.015702   
    152. D(H  16,C  15,C  14,C  13)    106.9874         0.015702   
    153. D(C  13,C  15,C  14,H  19)    105.8454         0.015702   
    154. D(H  17,C  15,C  14,H  18)    147.5115         0.015702   
    155. D(C  13,C  15,C  14,H  18)   -106.4445         0.015702   
    156. D(H  17,C  15,C  13,H  20)   -144.6768         0.012640   
    157. D(O  24,N  22,C   3,C   4)     21.5783         0.017230   
    158. D(O  24,N  22,C   3,C   2)   -157.8783         0.017230   
    159. D(O  23,N  22,C   3,C   4)   -160.3633         0.017230   
    160. D(O  23,N  22,C   3,C   2)     20.1801         0.017230   
    -----------------------------------------------------------------

Number of atoms                         .... 29
Number of degrees of freedom            .... 160

         *************************************************************
         *                GEOMETRY OPTIMIZATION CYCLE   1            *
         *************************************************************
---------------------------------
CARTESIAN COORDINATES (ANGSTROEM)
---------------------------------
  C     -4.673100   -0.058100    0.695800
  C     -3.264300   -0.315000    0.262900
  C     -2.341400    0.710100    0.165700
  C     -1.034800    0.464100   -0.246800
  C     -0.606400   -0.828500   -0.564400
  C     -1.542000   -1.850700   -0.446800
  C     -2.842800   -1.604000   -0.055100
  H     -3.543300   -2.423200    0.016100
  H     -1.238600   -2.863400   -0.669000
  C      0.810000   -1.140000   -0.926300
  H      0.943800   -2.220500   -1.023300
  C      1.787600   -0.645800    0.144000
  O      1.419700   -0.240100    1.219700
  C      3.205900   -0.727000   -0.255000
  C      4.085200    0.446800    0.128700
  C      4.242000   -0.843700    0.840000
  H      5.109300   -1.454500    0.641300
  H      3.863000   -0.912300    1.848400
  H      4.833900    0.755200   -0.584100
  H      3.597900    1.258300    0.646100
  H      3.402800   -1.210000   -1.202200
  H      1.086500   -0.672700   -1.873200
  N     -0.165300    1.607000   -0.337400
  O     -0.479400    2.599500    0.282600
  O      0.815100    1.537200   -1.053000
  H     -2.616900    1.726300    0.406000
  H     -5.368200   -0.341800   -0.093300
  H     -4.822100    0.991700    0.931500
  H     -4.910800   -0.651700    1.577100

----------------------------
CARTESIAN COORDINATES (A.U.)
----------------------------
  NO LB      ZA    FRAG     MASS         X           Y           Z
   0 C     6.0000    0    12.011   -8.830879   -0.109793    1.314871
   1 C     6.0000    0    12.011   -6.168633   -0.595264    0.496809
   2 C     6.0000    0    12.011   -4.424605    1.341895    0.313128
   3 C     6.0000    0    12.011   -1.955489    0.877022   -0.466384
   4 C     6.0000    0    12.011   -1.145930   -1.565638   -1.066561
   5 C     6.0000    0    12.011   -2.913958   -3.497316   -0.844330
   6 C     6.0000    0    12.011   -5.372113   -3.031121   -0.104124
   7 H     1.0000    0     1.008   -6.695867   -4.579184    0.030425
   8 H     1.0000    0     1.008   -2.340615   -5.411042   -1.264227
   9 C     6.0000    0    12.011    1.530678   -2.154288   -1.750453
  10 H     1.0000    0     1.008    1.783524   -4.196137   -1.933757
  11 C     6.0000    0    12.011    3.378074   -1.220385    0.272121
  12 O     8.0000    0    15.999    2.682844   -0.453723    2.304899
  13 C     6.0000    0    12.011    6.058273   -1.373831   -0.481880
  14 C     6.0000    0    12.011    7.719909    0.844330    0.243208
  15 C     6.0000    0    12.011    8.016218   -1.594362    1.587370
  16 H     1.0000    0     1.008    9.655178   -2.748607    1.211881
  17 H     1.0000    0     1.008    7.300012   -1.723997    3.492970
  18 H     1.0000    0     1.008    9.134747    1.427121   -1.103789
  19 H     1.0000    0     1.008    6.799046    2.377842    1.220952
  20 H     1.0000    0     1.008    6.430360   -2.286569   -2.271829
  21 H     1.0000    0     1.008    2.053187   -1.271219   -3.539835
  22 N     7.0000    0    14.007   -0.312372    3.036790   -0.637594
  23 O     8.0000    0    15.999   -0.905935    4.912343    0.534037
  24 O     8.0000    0    15.999    1.540316    2.904887   -1.989882
  25 H     1.0000    0     1.008   -4.945224    3.262234    0.767229
  26 H     1.0000    0     1.008  -10.144428   -0.645908   -0.176311
  27 H     1.0000    0     1.008   -9.112448    1.874041    1.760280
  28 H     1.0000    0     1.008   -9.280067   -1.231535    2.980287

--------------------------------
INTERNAL COORDINATES (ANGSTROEM)
--------------------------------
 C      0   0   0     0.000000000000     0.00000000     0.00000000
 C      1   0   0     1.496033910043     0.00000000     0.00000000
 C      2   1   0     1.382758930544   121.43642885     0.00000000
 C      3   2   1     1.392076079099   121.08274668   180.44844349
 C      4   3   2     1.398288625428   121.21324814   359.36577660
 C      5   4   3     1.390708438171   117.00990900   359.88856913
 C      6   5   4     1.380713735718   121.76738322     1.00532717
 H      7   6   5     1.080212168974   119.61353806   179.44712324
 H      6   5   4     1.080271118748   118.86231114   180.99617314
 C      5   4   3     1.494721653018   122.54505611   183.98296939
 H     10   5   4     1.093065272525   110.08929884   173.54767051
 C     10   5   4     1.531495181187   111.61863315    54.08695035
 O     12  10   5     1.207092950025   122.45873777    10.06583555
 C     12  10   5     1.475591179833   114.00508313   189.39277183
 C     14  12  10     1.515981734718   116.51635844   138.83435907
 C     15  14  12     1.481865101823    60.56535676   107.87766386
 H     16  15  14     1.079244003921   119.30937922   106.98739994
 H     16  15  14     1.079452416737   117.81387412   253.95599552
 H     15  14  12     1.078770638273   117.17219680   218.13533699
 H     15  14  12     1.078747560832   116.22188702   358.78541883
 H     14  12  10     1.081316997924   115.87855275   354.16438515
 H     10   5   4     1.091531561614   111.15293546   293.63928639
 N      4   3   2     1.438908968629   116.45340902   178.82892360
 O     23   4   3     1.211657979795   117.50012995    20.18011451
 O     23   4   3     1.215787629481   118.60333892   202.12171248
 H      3   2   1     1.079956841730   120.77528726     0.28080679
 H      1   2   3     1.089187086776   110.27956537   118.94568648
 H      1   2   3     1.086202343028   110.97330190   358.37499221
 H      1   2   3     1.088830537779   110.25341660   237.82826627

---------------------------
INTERNAL COORDINATES (A.U.)
---------------------------
 C      0   0   0     0.000000000000     0.00000000     0.00000000
 C      1   0   0     2.827094377042     0.00000000     0.00000000
 C      2   1   0     2.613035687963   121.43642885     0.00000000
 C      3   2   1     2.630642547080   121.08274668   180.44844349
 C      4   3   2     2.642382558235   121.21324814   359.36577660
 C      5   4   3     2.628058080277   117.00990900   359.88856913
 C      6   5   4     2.609170829850   121.76738322     1.00532717
 H      7   6   5     2.041305165890   119.61353806   179.44712324
 H      6   5   4     2.041416564818   118.86231114   180.99617314
 C      5   4   3     2.824614570646   122.54505611   183.98296939
 H     10   5   4     2.065594011572   110.08929884   173.54767051
 C     10   5   4     2.894106467864   111.61863315    54.08695035
 O     12  10   5     2.281075093734   122.45873777    10.06583555
 C     12  10   5     2.788463215514   114.00508313   189.39277183
 C     14  12  10     2.864790302645   116.51635844   138.83435907
 C     15  14  12     2.800319209860    60.56535676   107.87766386
 H     16  15  14     2.039475599088   119.30937922   106.98739994
 H     16  15  14     2.039869442233   117.81387412   253.95599552
 H     15  14  12     2.038581067651   117.17219680   218.13533699
 H     15  14  12     2.038537457607   116.22188702   358.78541883
 H     14  12  10     2.043392990031   115.87855275   354.16438515
 H     10   5   4     2.062695717982   111.15293546   293.63928639
 N      4   3   2     2.719143882351   116.45340902   178.82892360
 O     23   4   3     2.289701749792   117.50012995    20.18011451
 O     23   4   3     2.297505656729   118.60333892   202.12171248
 H      3   2   1     2.040822667325   120.77528726     0.28080679
 H      1   2   3     2.058265302611   110.27956537   118.94568648
 H      1   2   3     2.052624954347   110.97330190   358.37499221
 H      1   2   3     2.057591522652   110.25341660   237.82826627

---------------------
BASIS SET INFORMATION
---------------------
There are 4 groups of distinct atoms

 Group   1 Type C   : 7s4p1d contracted to 3s2p1d pattern {511/31/1}
 Group   2 Type H   : 4s1p contracted to 2s1p pattern {31/1}
 Group   3 Type O   : 7s4p1d contracted to 3s2p1d pattern {511/31/1}
 Group   4 Type N   : 7s4p1d contracted to 3s2p1d pattern {511/31/1}

Atom   0C    basis set group =>   1
Atom   1C    basis set group =>   1
Atom   2C    basis set group =>   1
Atom   3C    basis set group =>   1
Atom   4C    basis set group =>   1
Atom   5C    basis set group =>   1
Atom   6C    basis set group =>   1
Atom   7H    basis set group =>   2
Atom   8H    basis set group =>   2
Atom   9C    basis set group =>   1
Atom  10H    basis set group =>   2
Atom  11C    basis set group =>   1
Atom  12O    basis set group =>   3
Atom  13C    basis set group =>   1
Atom  14C    basis set group =>   1
Atom  15C    basis set group =>   1
Atom  16H    basis set group =>   2
Atom  17H    basis set group =>   2
Atom  18H    basis set group =>   2
Atom  19H    basis set group =>   2
Atom  20H    basis set group =>   2
Atom  21H    basis set group =>   2
Atom  22N    basis set group =>   4
Atom  23O    basis set group =>   3
Atom  24O    basis set group =>   3
Atom  25H    basis set group =>   2
Atom  26H    basis set group =>   2
Atom  27H    basis set group =>   2
Atom  28H    basis set group =>   2
------------------------------------------------------------------------------
                           ORCA GTO INTEGRAL CALCULATION
------------------------------------------------------------------------------

                         BASIS SET STATISTICS AND STARTUP INFO

 # of primitive gaussian shells          ...  257
 # of primitive gaussian functions       ...  475
 # of contracted shells                  ...  135
 # of contracted basis functions         ...  289
 Highest angular momentum                ...    2
 Maximum contraction depth               ...    5
 Integral package used                   ... LIBINT
 Integral threshhold            Thresh   ...  2.500e-11
 Primitive cut-off              TCut     ...  2.500e-12


------------------------------ INTEGRAL EVALUATION ----------------------------


 * One electron integrals 
 Pre-screening matrix                    ... done
 Shell pair data                         ... done (   0.002 sec)

-------------------------------------------------------------------------------
                                 ORCA SCF
-------------------------------------------------------------------------------

------------
SCF SETTINGS
------------
Hamiltonian:
 Density Functional     Method          .... DFT(GTOs)
 Exchange Functional    Exchange        .... WB97X-D3
 Correlation Functional Correlation     .... WB97X-D3
 Gradients option       PostSCFGGA      .... off
 Hybrid DFT is turned on
   Fraction HF Exchange ScalHFX         ....  0.195728
   Scaling of DF-GGA-X  ScalDFX         ....  0.000000
   Scaling of DF-GGA-C  ScalDFC         ....  1.000000
   Scaling of DF-LDA-C  ScalLDAC        ....  1.000000
   Perturbative correction              ....  0.000000
   Density functional embedding theory  .... OFF
 Long-range corrected/Screened/Range-Separated Hybrid DFT is turned on
   Amount of maximum screened exact exchange              ....  0.804272
   Range separation parameter mu (erf(mu*r12)/r12)        ....  0.250000


General Settings:
 Integral files         IntName         .... 063354978
 Hartree-Fock type      HFTyp           .... RHF
 Total Charge           Charge          ....    0
 Multiplicity           Mult            ....    1
 Number of Electrons    NEL             ....  116
 Basis Dimension        Dim             ....  289
 Nuclear Repulsion      ENuc            ....   1097.0272124325 Eh

Convergence Acceleration:
 DIIS                   CNVDIIS         .... on
   Start iteration      DIISMaxIt       ....    12
   Startup error        DIISStart       ....  0.200000
   # of expansion vecs  DIISMaxEq       ....     5
   Bias factor          DIISBfac        ....   1.050
   Max. coefficient     DIISMaxC        ....  10.000
 Newton-Raphson         CNVNR           .... off
 SOSCF                  CNVSOSCF        .... on
   Start iteration      SOSCFMaxIt      ....   150
   Startup grad/error   SOSCFStart      ....  0.003300
 Level Shifting         CNVShift        .... on
   Level shift para.    LevelShift      ....    0.2500
   Turn off err/grad.   ShiftErr        ....    0.0010
 Zerner damping         CNVZerner       .... off
 Static damping         CNVDamp         .... on
   Fraction old density DampFac         ....    0.7000
   Max. Damping (<1)    DampMax         ....    0.9800
   Min. Damping (>=0)   DampMin         ....    0.0000
   Turn off err/grad.   DampErr         ....    0.1000
 Fernandez-Rico         CNVRico         .... off

SCF Procedure:
 Maximum # iterations   MaxIter         ....   125
 SCF integral mode      SCFMode         .... Direct
   Integral package                     .... LIBINT
 Reset frequency        DirectResetFreq ....    20
 Integral Threshold     Thresh          ....  2.500e-11 Eh
 Primitive CutOff       TCut            ....  2.500e-12 Eh

Convergence Tolerance:
 Convergence Check Mode ConvCheckMode   .... Total+1el-Energy
 Convergence forced     ConvForced      .... 0
 Energy Change          TolE            ....  1.000e-08 Eh
 1-El. energy change                    ....  1.000e-05 Eh
 Orbital Gradient       TolG            ....  1.000e-05
 Orbital Rotation angle TolX            ....  1.000e-05
 DIIS Error             TolErr          ....  5.000e-07


Diagonalization of the overlap matrix:
Smallest eigenvalue                        ... 2.050e-04
Time for diagonalization                   ...    0.019 sec
Threshold for overlap eigenvalues          ... 1.000e-08
Number of eigenvalues below threshold      ... 0
Time for construction of square roots      ...    0.005 sec
Total time needed                          ...    0.025 sec

-------------------
DFT GRID GENERATION
-------------------

General Integration Accuracy     IntAcc      ...  4.340
Radial Grid Type                 RadialGrid  ... Gauss-Chebyshev
Angular Grid (max. acc.)         AngularGrid ... Lebedev-110
Angular grid pruning method      GridPruning ... 3 (G Style)
Weight generation scheme         WeightScheme... Becke
Basis function cutoff            BFCut       ...    1.0000e-11
Integration weight cutoff        WCut        ...    1.0000e-14
Grids for H and He will be reduced by one unit

# of grid points (after initial pruning)     ...  37044 (   0.0 sec)
# of grid points (after weights+screening)   ...  33471 (   0.2 sec)
nearest neighbour list constructed           ...    0.0 sec
Grid point re-assignment to atoms done       ...    0.0 sec
Grid point division into batches done        ...    0.0 sec
Reduced shell lists constructed in    0.3 sec

Total number of grid points                  ...    33471
Total number of batches                      ...      536
Average number of points per batch           ...       62
Average number of grid points per atom       ...     1154
Average number of shells per batch           ...    75.40 (55.85%)
Average number of basis functions per batch  ...   155.19 (53.70%)
Average number of large shells per batch     ...    52.98 (70.26%)
Average number of large basis fcns per batch ...   109.08 (70.29%)
Maximum spatial batch extension              ...  19.61, 25.60, 21.12 au
Average spatial batch extension              ...   3.27,  3.62,  3.78 au

Time for grid setup =    0.499 sec

------------------------------
INITIAL GUESS: MODEL POTENTIAL
------------------------------
Loading Hartree-Fock densities                     ... done
Calculating cut-offs                               ... done
Setting up the integral package                    ... done
Initializing the effective Hamiltonian             ... done
Starting the Coulomb interaction                   ... done (   0.4 sec)
Reading the grid                                   ... done
Mapping shells                                     ... done
Starting the XC term evaluation                    ... done (   0.5 sec)
  promolecular density results
     # of electrons  =    115.987118997
     EX              =    -96.278192947
     EC              =     -3.904616242
     EX+EC           =   -100.182809189
Transforming the Hamiltonian                       ... done (   0.0 sec)
Diagonalizing the Hamiltonian                      ... done (   0.0 sec)
Back transforming the eigenvectors                 ... done (   0.0 sec)
Now organizing SCF variables                       ... done
                      ------------------
                      INITIAL GUESS DONE (   1.5 sec)
                      ------------------
--------------
SCF ITERATIONS
--------------
ITER       Energy         Delta-E        Max-DP      RMS-DP      [F,P]     Damp
               ***  Starting incremental Fock matrix formation  ***
  0   -744.2763313779   0.000000000000 0.07209679  0.00190185  0.2220748 0.7000
  1   -744.4384762049  -0.162144827004 0.05203626  0.00133647  0.1088401 0.7000
                               ***Turning on DIIS***
  2   -744.5133599282  -0.074883723359 0.08500470  0.00255284  0.0488441 0.0000
  3   -744.6397900780  -0.126430149743 0.04506212  0.00083128  0.0518462 0.0000
  4   -744.6577720978  -0.017982019864 0.01087446  0.00020234  0.0086572 0.0000
  5   -744.6586014967  -0.000829398864 0.00442967  0.00007722  0.0034180 0.0000
                      *** Initiating the SOSCF procedure ***
                           *** Shutting down DIIS ***
                      *** Re-Reading the Fockian *** 
                      *** Removing any level shift *** 
ITER      Energy       Delta-E        Grad      Rot      Max-DP    RMS-DP
  6   -744.65867924  -0.0000777451  0.000639  0.000639  0.002881  0.000052
               *** Restarting incremental Fock matrix formation ***
  7   -744.65869796  -0.0000187202  0.000623  0.001588  0.001863  0.000032
  8   -744.65869468   0.0000032795  0.001062  0.000977  0.001146  0.000015
  9   -744.65870401  -0.0000093227  0.000073  0.000221  0.000198  0.000005
 10   -744.65870418  -0.0000001742  0.000041  0.000091  0.000153  0.000003
 11   -744.65870429  -0.0000001113  0.000007  0.000013  0.000026  0.000001
 12   -744.65870429  -0.0000000032  0.000004  0.000004  0.000017  0.000000
                  ***Gradient check signals convergence***
              ***Rediagonalizing the Fockian in SOSCF/NRSCF***

               *****************************************************
               *                     SUCCESS                       *
               *           SCF CONVERGED AFTER  13 CYCLES          *
               *****************************************************

Setting up the final grid:

General Integration Accuracy     IntAcc      ...  4.670
Radial Grid Type                 RadialGrid  ... Gauss-Chebyshev
Angular Grid (max. acc.)         AngularGrid ... Lebedev-302
Angular grid pruning method      GridPruning ... 3 (G Style)
Weight generation scheme         WeightScheme... Becke
Basis function cutoff            BFCut       ...    1.0000e-11
Integration weight cutoff        WCut        ...    1.0000e-14
Grids for H and He will be reduced by one unit

# of grid points (after initial pruning)     ... 143514 (   0.1 sec)
# of grid points (after weights+screening)   ... 127150 (   0.7 sec)
nearest neighbour list constructed           ...    0.0 sec
Grid point re-assignment to atoms done       ...    0.0 sec
Grid point division into batches done        ...    0.4 sec
Reduced shell lists constructed in    1.4 sec

Total number of grid points                  ...   127150
Total number of batches                      ...     2001
Average number of points per batch           ...       63
Average number of grid points per atom       ...     4384
Average number of shells per batch           ...    68.21 (50.52%)
Average number of basis functions per batch  ...   139.33 (48.21%)
Average number of large shells per batch     ...    47.17 (69.16%)
Average number of large basis fcns per batch ...    96.07 (68.95%)
Maximum spatial batch extension              ...  18.10, 22.19, 22.04 au
Average spatial batch extension              ...   2.23,  2.29,  2.42 au

Final grid set up in    2.2 sec
Final integration                            ... done (   2.4 sec)
Change in XC energy                          ...     0.002603051
Integrated number of electrons               ...   115.999910337
Previous integrated no of electrons          ...   115.999010718

----------------
TOTAL SCF ENERGY
----------------

Total Energy       :         -744.65610124 Eh          -20263.12267 eV

Components:
Nuclear Repulsion  :         1097.02721243 Eh           29851.62808 eV
Electronic Energy  :        -1841.68331368 Eh          -50114.75075 eV
One Electron Energy:        -3189.60297083 Eh          -86793.50933 eV
Two Electron Energy:         1347.91965716 Eh           36678.75858 eV

Virial components:
Potential Energy   :        -1482.47445005 Eh          -40340.18064 eV
Kinetic Energy     :          737.81834880 Eh           20077.05797 eV
Virial Ratio       :            2.00926753


DFT components:
N(Alpha)           :       57.999955168693 electrons
N(Beta)            :       57.999955168693 electrons
N(Total)           :      115.999910337387 electrons
E(XC)              :      -70.778506634179 Eh       
DFET-embed. en.    :        0.000000000000 Eh       

---------------
SCF CONVERGENCE
---------------

  Last Energy change         ...   -8.1104e-10  Tolerance :   1.0000e-08
  Last MAX-Density change    ...    4.0792e-06  Tolerance :   1.0000e-07
  Last RMS-Density change    ...    8.0248e-08  Tolerance :   5.0000e-09
  Last Orbital Gradient      ...    9.5406e-07  Tolerance :   1.0000e-05
  Last Orbital Rotation      ...    2.6221e-06  Tolerance :   1.0000e-05

             **** THE GBW FILE WAS UPDATED (063354978.gbw) ****
             **** DENSITY FILE WAS UPDATED (063354978.scfp) ****
             **** ENERGY FILE WAS UPDATED (063354978.en.tmp) ****
             **** THE GBW FILE WAS UPDATED (063354978.gbw) ****
             **** DENSITY FILE WAS UPDATED (063354978.scfp) ****
----------------
ORBITAL ENERGIES
----------------

  NO   OCC          E(Eh)            E(eV) 
   0   2.0000     -19.266187      -524.2596 
   1   2.0000     -19.266015      -524.2549 
   2   2.0000     -19.228870      -523.2441 
   3   2.0000     -14.668525      -399.1508 
   4   2.0000     -10.380037      -282.4552 
   5   2.0000     -10.346553      -281.5440 
   6   2.0000     -10.325669      -280.9757 
   7   2.0000     -10.314795      -280.6798 
   8   2.0000     -10.310189      -280.5545 
   9   2.0000     -10.309794      -280.5438 
  10   2.0000     -10.309162      -280.5266 
  11   2.0000     -10.305477      -280.4263 
  12   2.0000     -10.301627      -280.3215 
  13   2.0000     -10.298852      -280.2460 
  14   2.0000     -10.298131      -280.2264 
  15   2.0000     -10.295987      -280.1680 
  16   2.0000      -1.350074       -36.7374 
  17   2.0000      -1.167527       -31.7700 
  18   2.0000      -1.151548       -31.3352 
  19   2.0000      -1.011390       -27.5213 
  20   2.0000      -0.983431       -26.7605 
  21   2.0000      -0.935750       -25.4630 
  22   2.0000      -0.915947       -24.9242 
  23   2.0000      -0.868222       -23.6255 
  24   2.0000      -0.818175       -22.2637 
  25   2.0000      -0.802293       -21.8315 
  26   2.0000      -0.748474       -20.3670 
  27   2.0000      -0.725795       -19.7499 
  28   2.0000      -0.712946       -19.4003 
  29   2.0000      -0.686333       -18.6761 
  30   2.0000      -0.656238       -17.8571 
  31   2.0000      -0.647965       -17.6320 
  32   2.0000      -0.637519       -17.3478 
  33   2.0000      -0.621221       -16.9043 
  34   2.0000      -0.612714       -16.6728 
  35   2.0000      -0.597065       -16.2470 
  36   2.0000      -0.594249       -16.1703 
  37   2.0000      -0.578458       -15.7407 
  38   2.0000      -0.552606       -15.0372 
  39   2.0000      -0.548170       -14.9165 
  40   2.0000      -0.537740       -14.6326 
  41   2.0000      -0.532784       -14.4978 
  42   2.0000      -0.518250       -14.1023 
  43   2.0000      -0.498616       -13.5680 
  44   2.0000      -0.489632       -13.3236 
  45   2.0000      -0.479200       -13.0397 
  46   2.0000      -0.475667       -12.9436 
  47   2.0000      -0.468612       -12.7516 
  48   2.0000      -0.456581       -12.4242 
  49   2.0000      -0.454997       -12.3811 
  50   2.0000      -0.411106       -11.1868 
  51   2.0000      -0.405835       -11.0433 
  52   2.0000      -0.401916       -10.9367 
  53   2.0000      -0.392478       -10.6799 
  54   2.0000      -0.391067       -10.6415 
  55   2.0000      -0.363672        -9.8960 
  56   2.0000      -0.349574        -9.5124 
  57   2.0000      -0.340904        -9.2765 
  58   0.0000      -0.009514        -0.2589 
  59   0.0000       0.055445         1.5087 
  60   0.0000       0.068633         1.8676 
  61   0.0000       0.085453         2.3253 
  62   0.0000       0.143492         3.9046 
  63   0.0000       0.146877         3.9967 
  64   0.0000       0.158258         4.3064 
  65   0.0000       0.178655         4.8615 
  66   0.0000       0.184391         5.0175 
  67   0.0000       0.188294         5.1238 
  68   0.0000       0.195127         5.3097 
  69   0.0000       0.207948         5.6586 
  70   0.0000       0.215277         5.8580 
  71   0.0000       0.222851         6.0641 
  72   0.0000       0.242911         6.6100 
  73   0.0000       0.248296         6.7565 
  74   0.0000       0.254511         6.9256 
  75   0.0000       0.263143         7.1605 
  76   0.0000       0.277380         7.5479 
  77   0.0000       0.277823         7.5599 
  78   0.0000       0.303531         8.2595 
  79   0.0000       0.308953         8.4070 
  80   0.0000       0.315934         8.5970 
  81   0.0000       0.343579         9.3493 
  82   0.0000       0.354354         9.6425 
  83   0.0000       0.359739         9.7890 
  84   0.0000       0.367489         9.9999 
  85   0.0000       0.380342        10.3496 
  86   0.0000       0.392954        10.6928 
  87   0.0000       0.394884        10.7454 
  88   0.0000       0.411338        11.1931 
  89   0.0000       0.419851        11.4247 
  90   0.0000       0.429206        11.6793 
  91   0.0000       0.479234        13.0406 
  92   0.0000       0.487912        13.2768 
  93   0.0000       0.494008        13.4427 
  94   0.0000       0.495517        13.4837 
  95   0.0000       0.523196        14.2369 
  96   0.0000       0.530203        14.4276 
  97   0.0000       0.536539        14.6000 
  98   0.0000       0.555702        15.1214 
  99   0.0000       0.560741        15.2585 
 100   0.0000       0.567664        15.4469 
 101   0.0000       0.582690        15.8558 
 102   0.0000       0.592177        16.1140 
 103   0.0000       0.600259        16.3339 
 104   0.0000       0.605751        16.4833 
 105   0.0000       0.611918        16.6511 
 106   0.0000       0.629783        17.1373 
 107   0.0000       0.652083        17.7441 
 108   0.0000       0.661168        17.9913 
 109   0.0000       0.668766        18.1980 
 110   0.0000       0.675606        18.3842 
 111   0.0000       0.680766        18.5246 
 112   0.0000       0.684886        18.6367 
 113   0.0000       0.703048        19.1309 
 114   0.0000       0.708847        19.2887 
 115   0.0000       0.719229        19.5712 
 116   0.0000       0.727295        19.7907 
 117   0.0000       0.733365        19.9559 
 118   0.0000       0.740535        20.1510 
 119   0.0000       0.741584        20.1795 
 120   0.0000       0.752474        20.4759 
 121   0.0000       0.759384        20.6639 
 122   0.0000       0.761943        20.7335 
 123   0.0000       0.769055        20.9270 
 124   0.0000       0.771789        21.0014 
 125   0.0000       0.780076        21.2269 
 126   0.0000       0.781877        21.2759 
 127   0.0000       0.788187        21.4477 
 128   0.0000       0.792354        21.5611 
 129   0.0000       0.793484        21.5918 
 130   0.0000       0.797730        21.7073 
 131   0.0000       0.802605        21.8400 
 132   0.0000       0.813624        22.1398 
 133   0.0000       0.816686        22.2231 
 134   0.0000       0.826165        22.4811 
 135   0.0000       0.839226        22.8365 
 136   0.0000       0.851431        23.1686 
 137   0.0000       0.856947        23.3187 
 138   0.0000       0.871149        23.7052 
 139   0.0000       0.897511        24.4225 
 140   0.0000       0.920900        25.0590 
 141   0.0000       0.938980        25.5509 
 142   0.0000       0.946043        25.7431 
 143   0.0000       0.964490        26.2451 
 144   0.0000       0.984275        26.7835 
 145   0.0000       1.002680        27.2843 
 146   0.0000       1.012753        27.5584 
 147   0.0000       1.024793        27.8860 
 148   0.0000       1.044196        28.4140 
 149   0.0000       1.054988        28.7077 
 150   0.0000       1.082957        29.4688 
 151   0.0000       1.102270        29.9943 
 152   0.0000       1.116078        30.3700 
 153   0.0000       1.129085        30.7240 
 154   0.0000       1.143209        31.1083 
 155   0.0000       1.187432        32.3117 
 156   0.0000       1.207754        32.8647 
 157   0.0000       1.231476        33.5102 
 158   0.0000       1.262258        34.3478 
 159   0.0000       1.273298        34.6482 
 160   0.0000       1.287332        35.0301 
 161   0.0000       1.313336        35.7377 
 162   0.0000       1.322688        35.9922 
 163   0.0000       1.338865        36.4324 
 164   0.0000       1.343632        36.5621 
 165   0.0000       1.351253        36.7695 
 166   0.0000       1.369382        37.2628 
 167   0.0000       1.382960        37.6323 
 168   0.0000       1.393546        37.9203 
 169   0.0000       1.424538        38.7636 
 170   0.0000       1.432361        38.9765 
 171   0.0000       1.473506        40.0961 
 172   0.0000       1.490922        40.5700 
 173   0.0000       1.510404        41.1002 
 174   0.0000       1.529243        41.6128 
 175   0.0000       1.560965        42.4760 
 176   0.0000       1.582063        43.0501 
 177   0.0000       1.589800        43.2607 
 178   0.0000       1.597806        43.4785 
 179   0.0000       1.618390        44.0386 
 180   0.0000       1.631103        44.3846 
 181   0.0000       1.644745        44.7558 
 182   0.0000       1.658016        45.1169 
 183   0.0000       1.678229        45.6669 
 184   0.0000       1.701310        46.2950 
 185   0.0000       1.705795        46.4170 
 186   0.0000       1.730434        47.0875 
 187   0.0000       1.767753        48.1030 
 188   0.0000       1.785294        48.5803 
 189   0.0000       1.791542        48.7503 
 190   0.0000       1.796695        48.8905 
 191   0.0000       1.811972        49.3063 
 192   0.0000       1.818827        49.4928 
 193   0.0000       1.824143        49.6374 
 194   0.0000       1.834907        49.9304 
 195   0.0000       1.844525        50.1921 
 196   0.0000       1.856538        50.5190 
 197   0.0000       1.868304        50.8391 
 198   0.0000       1.871503        50.9262 
 199   0.0000       1.872705        50.9589 
 200   0.0000       1.890873        51.4533 
 201   0.0000       1.894384        51.5488 
 202   0.0000       1.910894        51.9981 
 203   0.0000       1.914850        52.1057 
 204   0.0000       1.923294        52.3355 
 205   0.0000       1.950877        53.0861 
 206   0.0000       1.958652        53.2976 
 207   0.0000       1.984158        53.9917 
 208   0.0000       1.998753        54.3888 
 209   0.0000       2.010423        54.7064 
 210   0.0000       2.029401        55.2228 
 211   0.0000       2.040637        55.5285 
 212   0.0000       2.060090        56.0579 
 213   0.0000       2.069040        56.3014 
 214   0.0000       2.092859        56.9496 
 215   0.0000       2.108959        57.3877 
 216   0.0000       2.110547        57.4309 
 217   0.0000       2.118224        57.6398 
 218   0.0000       2.134959        58.0952 
 219   0.0000       2.146688        58.4144 
 220   0.0000       2.166174        58.9446 
 221   0.0000       2.178160        59.2708 
 222   0.0000       2.194019        59.7023 
 223   0.0000       2.220098        60.4119 
 224   0.0000       2.230848        60.7044 
 225   0.0000       2.251174        61.2576 
 226   0.0000       2.255355        61.3713 
 227   0.0000       2.301426        62.6250 
 228   0.0000       2.335050        63.5399 
 229   0.0000       2.345902        63.8352 
 230   0.0000       2.355638        64.1002 
 231   0.0000       2.366572        64.3977 
 232   0.0000       2.382133        64.8211 
 233   0.0000       2.392876        65.1135 
 234   0.0000       2.402957        65.3878 
 235   0.0000       2.413569        65.6765 
 236   0.0000       2.430803        66.1455 
 237   0.0000       2.443766        66.4982 
 238   0.0000       2.463435        67.0335 
 239   0.0000       2.486308        67.6559 
 240   0.0000       2.499430        68.0129 
 241   0.0000       2.516558        68.4790 
 242   0.0000       2.528160        68.7947 
 243   0.0000       2.566215        69.8303 
 244   0.0000       2.599649        70.7401 
 245   0.0000       2.618151        71.2435 
 246   0.0000       2.629666        71.5568 
 247   0.0000       2.653749        72.2122 
 248   0.0000       2.688811        73.1663 
 249   0.0000       2.693843        73.3032 
 250   0.0000       2.723000        74.0966 
 251   0.0000       2.731860        74.3377 
 252   0.0000       2.744772        74.6891 
 253   0.0000       2.751183        74.8635 
 254   0.0000       2.763837        75.2078 
 255   0.0000       2.774569        75.4999 
 256   0.0000       2.788039        75.8664 
 257   0.0000       2.802338        76.2555 
 258   0.0000       2.815556        76.6152 
 259   0.0000       2.842076        77.3368 
 260   0.0000       2.852353        77.6165 
 261   0.0000       2.869653        78.0872 
 262   0.0000       2.875911        78.2575 
 263   0.0000       2.886418        78.5434 
 264   0.0000       2.904188        79.0270 
 265   0.0000       2.912842        79.2625 
 266   0.0000       2.941449        80.0409 
 267   0.0000       2.982202        81.1498 
 268   0.0000       3.004290        81.7509 
 269   0.0000       3.036734        82.6337 
 270   0.0000       3.040472        82.7354 
 271   0.0000       3.064502        83.3893 
 272   0.0000       3.085085        83.9494 
 273   0.0000       3.106942        84.5442 
 274   0.0000       3.129848        85.1675 
 275   0.0000       3.168659        86.2236 
 276   0.0000       3.181482        86.5725 
 277   0.0000       3.186458        86.7079 
 278   0.0000       3.250172        88.4417 
 279   0.0000       3.263741        88.8109 
 280   0.0000       3.293270        89.6144 
 281   0.0000       3.401714        92.5653 
 282   0.0000       3.431987        93.3891 
 283   0.0000       3.522412        95.8497 
 284   0.0000       3.546344        96.5009 
 285   0.0000       3.692616       100.4812 
 286   0.0000       3.756953       102.2319 
 287   0.0000       3.881873       105.6311 
 288   0.0000       3.888892       105.8221 

                    ********************************
                    * MULLIKEN POPULATION ANALYSIS *
                    ********************************

-----------------------
MULLIKEN ATOMIC CHARGES
-----------------------
   0 C :    0.052941
   1 C :   -0.102120
   2 C :   -0.041681
   3 C :    0.137872
   4 C :   -0.085344
   5 C :   -0.045413
   6 C :    0.009262
   7 H :    0.005990
   8 H :    0.003570
   9 C :    0.113072
  10 H :    0.040254
  11 C :    0.063595
  12 O :   -0.216554
  13 C :   -0.176132
  14 C :   -0.029536
  15 C :   -0.019662
  16 H :    0.055359
  17 H :    0.068957
  18 H :    0.060044
  19 H :    0.077860
  20 H :    0.033419
  21 H :    0.074897
  22 N :    0.257436
  23 O :   -0.237224
  24 O :   -0.261402
  25 H :    0.019080
  26 H :    0.052566
  27 H :    0.036139
  28 H :    0.052757
Sum of atomic charges:    0.0000000

--------------------------------
MULLIKEN REDUCED ORBITAL CHARGES
--------------------------------
  0 C s       :     2.940946  s :     2.940946
      pz      :     1.020165  p :     2.978520
      px      :     0.943324
      py      :     1.015031
      dz2     :     0.004129  d :     0.027593
      dxz     :     0.007361
      dyz     :     0.004745
      dx2y2   :     0.008043
      dxy     :     0.003315
  1 C s       :     3.053748  s :     3.053748
      pz      :     0.981874  p :     3.002915
      px      :     1.027887
      py      :     0.993154
      dz2     :     0.004016  d :     0.045457
      dxz     :     0.007193
      dyz     :     0.006878
      dx2y2   :     0.013484
      dxy     :     0.013887
  2 C s       :     3.299143  s :     3.299143
      pz      :     0.943404  p :     2.708119
      px      :     0.940247
      py      :     0.824468
      dz2     :     0.003389  d :     0.034419
      dxz     :     0.006854
      dyz     :     0.003728
      dx2y2   :     0.011832
      dxy     :     0.008616
  3 C s       :     3.013530  s :     3.013530
      pz      :     1.039262  p :     2.799300
      px      :     0.849143
      py      :     0.910895
      dz2     :     0.005799  d :     0.049297
      dxz     :     0.006186
      dyz     :     0.006615
      dx2y2   :     0.011185
      dxy     :     0.019512
  4 C s       :     3.050548  s :     3.050548
      pz      :     0.955623  p :     2.991352
      px      :     0.990731
      py      :     1.044998
      dz2     :     0.004075  d :     0.043444
      dxz     :     0.006522
      dyz     :     0.007547
      dx2y2   :     0.012826
      dxy     :     0.012474
  5 C s       :     3.216618  s :     3.216618
      pz      :     0.983553  p :     2.793261
      px      :     0.919349
      py      :     0.890360
      dz2     :     0.003163  d :     0.035534
      dxz     :     0.006300
      dyz     :     0.003743
      dx2y2   :     0.011254
      dxy     :     0.011074
  6 C s       :     3.193929  s :     3.193929
      pz      :     0.959833  p :     2.761324
      px      :     0.890208
      py      :     0.911283
      dz2     :     0.003591  d :     0.035484
      dxz     :     0.005030
      dyz     :     0.004800
      dx2y2   :     0.009814
      dxy     :     0.012250
  7 H s       :     0.970426  s :     0.970426
      pz      :     0.004476  p :     0.023584
      px      :     0.008637
      py      :     0.010470
  8 H s       :     0.972696  s :     0.972696
      pz      :     0.005151  p :     0.023734
      px      :     0.004426
      py      :     0.014158
  9 C s       :     2.875791  s :     2.875791
      pz      :     1.051730  p :     2.979050
      px      :     0.918429
      py      :     1.008892
      dz2     :     0.006213  d :     0.032086
      dxz     :     0.008292
      dyz     :     0.003665
      dx2y2   :     0.009422
      dxy     :     0.004496
 10 H s       :     0.936399  s :     0.936399
      pz      :     0.004894  p :     0.023346
      px      :     0.003923
      py      :     0.014530
 11 C s       :     3.137524  s :     3.137524
      pz      :     0.940600  p :     2.698371
      px      :     0.976799
      py      :     0.780971
      dz2     :     0.026010  d :     0.100510
      dxz     :     0.034214
      dyz     :     0.018028
      dx2y2   :     0.010833
      dxy     :     0.011425
 12 O s       :     3.737255  s :     3.737255
      pz      :     1.368547  p :     4.460573
      px      :     1.738239
      py      :     1.353786
      dz2     :     0.006696  d :     0.018726
      dxz     :     0.004345
      dyz     :     0.005471
      dx2y2   :     0.001106
      dxy     :     0.001108
 13 C s       :     3.177701  s :     3.177701
      pz      :     0.967112  p :     2.958037
      px      :     0.920716
      py      :     1.070209
      dz2     :     0.008010  d :     0.040394
      dxz     :     0.009100
      dyz     :     0.006920
      dx2y2   :     0.009551
      dxy     :     0.006814
 14 C s       :     3.085406  s :     3.085406
      pz      :     1.015001  p :     2.906797
      px      :     0.990305
      py      :     0.901491
      dz2     :     0.004470  d :     0.037333
      dxz     :     0.006190
      dyz     :     0.009314
      dx2y2   :     0.007732
      dxy     :     0.009627
 15 C s       :     3.066666  s :     3.066666
      pz      :     0.951891  p :     2.915664
      px      :     0.964261
      py      :     0.999512
      dz2     :     0.008005  d :     0.037333
      dxz     :     0.008344
      dyz     :     0.007265
      dx2y2   :     0.006237
      dxy     :     0.007483
 16 H s       :     0.921086  s :     0.921086
      pz      :     0.004151  p :     0.023555
      px      :     0.011433
      py      :     0.007971
 17 H s       :     0.907259  s :     0.907259
      pz      :     0.013657  p :     0.023785
      px      :     0.005811
      py      :     0.004317
 18 H s       :     0.916378  s :     0.916378
      pz      :     0.009270  p :     0.023579
      px      :     0.009806
      py      :     0.004503
 19 H s       :     0.898421  s :     0.898421
      pz      :     0.007205  p :     0.023719
      px      :     0.006863
      py      :     0.009651
 20 H s       :     0.944065  s :     0.944065
      pz      :     0.012485  p :     0.022516
      px      :     0.003275
      py      :     0.006757
 21 H s       :     0.901068  s :     0.901068
      pz      :     0.012265  p :     0.024035
      px      :     0.004278
      py      :     0.007493
 22 N s       :     3.293610  s :     3.293610
      pz      :     1.093647  p :     3.325735
      px      :     1.107992
      py      :     1.124095
      dz2     :     0.025993  d :     0.123219
      dxz     :     0.018453
      dyz     :     0.020985
      dx2y2   :     0.024758
      dxy     :     0.033030
 23 O s       :     3.857189  s :     3.857189
      pz      :     1.384589  p :     4.356792
      px      :     1.662675
      py      :     1.309528
      dz2     :     0.004042  d :     0.023242
      dxz     :     0.001676
      dyz     :     0.007710
      dx2y2   :     0.004855
      dxy     :     0.004959
 24 O s       :     3.859041  s :     3.859041
      pz      :     1.338008  p :     4.379663
      px      :     1.244223
      py      :     1.797432
      dz2     :     0.004568  d :     0.022698
      dxz     :     0.008191
      dyz     :     0.001603
      dx2y2   :     0.005138
      dxy     :     0.003198
 25 H s       :     0.956338  s :     0.956338
      pz      :     0.004933  p :     0.024582
      px      :     0.004141
      py      :     0.015508
 26 H s       :     0.923234  s :     0.923234
      pz      :     0.010157  p :     0.024200
      px      :     0.008309
      py      :     0.005735
 27 H s       :     0.939985  s :     0.939985
      pz      :     0.005434  p :     0.023876
      px      :     0.004316
      py      :     0.014126
 28 H s       :     0.922990  s :     0.922990
      pz      :     0.011594  p :     0.024254
      px      :     0.004872
      py      :     0.007787


                     *******************************
                     * LOEWDIN POPULATION ANALYSIS *
                     *******************************

----------------------
LOEWDIN ATOMIC CHARGES
----------------------
   0 C :   -0.047642
   1 C :   -0.029336
   2 C :   -0.004326
   3 C :   -0.024540
   4 C :   -0.001653
   5 C :   -0.019642
   6 C :   -0.004394
   7 H :    0.032252
   8 H :    0.031948
   9 C :   -0.061388
  10 H :    0.043275
  11 C :    0.095326
  12 O :   -0.167688
  13 C :   -0.084174
  14 C :   -0.005389
  15 C :   -0.018525
  16 H :    0.030568
  17 H :    0.035826
  18 H :    0.032386
  19 H :    0.037978
  20 H :    0.029312
  21 H :    0.051243
  22 N :    0.294345
  23 O :   -0.193921
  24 O :   -0.205845
  25 H :    0.038719
  26 H :    0.040287
  27 H :    0.034198
  28 H :    0.040799

-------------------------------
LOEWDIN REDUCED ORBITAL CHARGES
-------------------------------
  0 C s       :     2.820607  s :     2.820607
      pz      :     1.068315  p :     3.153925
      px      :     1.018067
      py      :     1.067543
      dz2     :     0.010763  d :     0.073110
      dxz     :     0.019180
      dyz     :     0.012355
      dx2y2   :     0.022456
      dxy     :     0.008356
  1 C s       :     2.844043  s :     2.844043
      pz      :     0.955680  p :     3.073985
      px      :     1.040242
      py      :     1.078063
      dz2     :     0.008735  d :     0.111308
      dxz     :     0.013702
      dyz     :     0.015039
      dx2y2   :     0.036705
      dxy     :     0.037127
  2 C s       :     2.853401  s :     2.853401
      pz      :     0.956331  p :     3.059298
      px      :     1.043477
      py      :     1.059491
      dz2     :     0.007584  d :     0.091627
      dxz     :     0.015786
      dyz     :     0.007798
      dx2y2   :     0.034290
      dxy     :     0.026168
  3 C s       :     2.850797  s :     2.850797
      pz      :     1.050506  p :     3.047006
      px      :     1.018655
      py      :     0.977844
      dz2     :     0.013012  d :     0.126737
      dxz     :     0.013951
      dyz     :     0.014833
      dx2y2   :     0.033720
      dxy     :     0.051220
  4 C s       :     2.844255  s :     2.844255
      pz      :     0.942085  p :     3.048147
      px      :     1.040592
      py      :     1.065471
      dz2     :     0.009439  d :     0.109251
      dxz     :     0.012477
      dyz     :     0.016702
      dx2y2   :     0.036089
      dxy     :     0.034544
  5 C s       :     2.847955  s :     2.847955
      pz      :     0.984592  p :     3.078129
      px      :     1.055728
      py      :     1.037809
      dz2     :     0.007133  d :     0.093557
      dxz     :     0.014268
      dyz     :     0.007779
      dx2y2   :     0.032534
      dxy     :     0.031842
  6 C s       :     2.851772  s :     2.851772
      pz      :     0.959652  p :     3.059292
      px      :     1.050347
      py      :     1.049293
      dz2     :     0.008076  d :     0.093330
      dxz     :     0.011254
      dyz     :     0.010599
      dx2y2   :     0.028499
      dxy     :     0.034902
  7 H s       :     0.898680  s :     0.898680
      pz      :     0.013978  p :     0.069068
      px      :     0.024935
      py      :     0.030155
  8 H s       :     0.898965  s :     0.898965
      pz      :     0.015898  p :     0.069087
      px      :     0.013859
      py      :     0.039329
  9 C s       :     2.833965  s :     2.833965
      pz      :     1.067887  p :     3.141475
      px      :     1.007753
      py      :     1.065834
      dz2     :     0.016593  d :     0.085948
      dxz     :     0.022259
      dyz     :     0.009864
      dx2y2   :     0.025994
      dxy     :     0.011238
 10 H s       :     0.888023  s :     0.888023
      pz      :     0.015148  p :     0.068702
      px      :     0.012547
      py      :     0.041007
 11 C s       :     2.874510  s :     2.874510
      pz      :     0.991392  p :     2.803828
      px      :     1.036481
      py      :     0.775956
      dz2     :     0.058533  d :     0.226335
      dxz     :     0.082514
      dyz     :     0.036811
      dx2y2   :     0.024397
      dxy     :     0.024080
 12 O s       :     3.535634  s :     3.535634
      pz      :     1.477478  p :     4.600111
      px      :     1.751754
      py      :     1.370879
      dz2     :     0.011934  d :     0.031943
      dxz     :     0.008079
      dyz     :     0.008596
      dx2y2   :     0.001595
      dxy     :     0.001739
 13 C s       :     2.829122  s :     2.829122
      pz      :     1.050501  p :     3.152640
      px      :     1.000328
      py      :     1.101810
      dz2     :     0.020620  d :     0.102412
      dxz     :     0.024251
      dyz     :     0.016529
      dx2y2   :     0.024953
      dxy     :     0.016058
 14 C s       :     2.818613  s :     2.818613
      pz      :     1.072289  p :     3.093769
      px      :     1.045893
      py      :     0.975587
      dz2     :     0.009570  d :     0.093006
      dxz     :     0.016130
      dyz     :     0.023806
      dx2y2   :     0.019120
      dxy     :     0.024380
 15 C s       :     2.817126  s :     2.817126
      pz      :     1.018566  p :     3.108434
      px      :     1.033106
      py      :     1.056763
      dz2     :     0.021932  d :     0.092965
      dxz     :     0.020897
      dyz     :     0.016672
      dx2y2   :     0.014994
      dxy     :     0.018471
 16 H s       :     0.898975  s :     0.898975
      pz      :     0.013129  p :     0.070457
      px      :     0.033159
      py      :     0.024169
 17 H s       :     0.892164  s :     0.892164
      pz      :     0.040024  p :     0.072010
      px      :     0.017533
      py      :     0.014453
 18 H s       :     0.897285  s :     0.897285
      pz      :     0.027498  p :     0.070329
      px      :     0.028926
      py      :     0.013905
 19 H s       :     0.890359  s :     0.890359
      pz      :     0.022119  p :     0.071662
      px      :     0.020451
      py      :     0.029093
 20 H s       :     0.898409  s :     0.898409
      pz      :     0.036708  p :     0.072279
      px      :     0.012866
      py      :     0.022705
 21 H s       :     0.876826  s :     0.876826
      pz      :     0.036731  p :     0.071931
      px      :     0.014497
      py      :     0.020703
 22 N s       :     3.037100  s :     3.037100
      pz      :     1.112942  p :     3.413765
      px      :     1.136902
      py      :     1.163921
      dz2     :     0.045554  d :     0.254791
      dxz     :     0.042338
      dyz     :     0.045420
      dx2y2   :     0.053229
      dxy     :     0.068251
 23 O s       :     3.608091  s :     3.608091
      pz      :     1.439241  p :     4.541671
      px      :     1.672453
      py      :     1.429978
      dz2     :     0.005777  d :     0.044159
      dxz     :     0.003156
      dyz     :     0.016495
      dx2y2   :     0.010459
      dxy     :     0.008272
 24 O s       :     3.606160  s :     3.606160
      pz      :     1.408561  p :     4.556433
      px      :     1.363614
      py      :     1.784259
      dz2     :     0.006325  d :     0.043252
      dxz     :     0.018808
      dyz     :     0.002562
      dx2y2   :     0.010564
      dxy     :     0.004992
 25 H s       :     0.887106  s :     0.887106
      pz      :     0.015436  p :     0.074175
      px      :     0.014220
      py      :     0.044519
 26 H s       :     0.892627  s :     0.892627
      pz      :     0.027740  p :     0.067086
      px      :     0.024409
      py      :     0.014937
 27 H s       :     0.899009  s :     0.899009
      pz      :     0.014555  p :     0.066793
      px      :     0.012930
      py      :     0.039308
 28 H s       :     0.892072  s :     0.892072
      pz      :     0.031559  p :     0.067129
      px      :     0.014425
      py      :     0.021146


                      *****************************
                      * MAYER POPULATION ANALYSIS *
                      *****************************

  NA   - Mulliken gross atomic population
  ZA   - Total nuclear charge
  QA   - Mulliken gross atomic charge
  VA   - Mayer's total valence
  BVA  - Mayer's bonded valence
  FA   - Mayer's free valence

  ATOM       NA         ZA         QA         VA         BVA        FA
  0 C      5.9471     6.0000     0.0529     3.9038     3.9038     0.0000
  1 C      6.1021     6.0000    -0.1021     3.9113     3.9113     0.0000
  2 C      6.0417     6.0000    -0.0417     3.9058     3.9058     0.0000
  3 C      5.8621     6.0000     0.1379     3.9053     3.9053     0.0000
  4 C      6.0853     6.0000    -0.0853     4.0293     4.0293    -0.0000
  5 C      6.0454     6.0000    -0.0454     3.9215     3.9215     0.0000
  6 C      5.9907     6.0000     0.0093     3.8650     3.8650     0.0000
  7 H      0.9940     1.0000     0.0060     0.9930     0.9930     0.0000
  8 H      0.9964     1.0000     0.0036     0.9945     0.9945     0.0000
  9 C      5.8869     6.0000     0.1131     3.7461     3.7461    -0.0000
 10 H      0.9597     1.0000     0.0403     0.9990     0.9990    -0.0000
 11 C      5.9364     6.0000     0.0636     4.2311     4.2311     0.0000
 12 O      8.2166     8.0000    -0.2166     2.2781     2.2781     0.0000
 13 C      6.1761     6.0000    -0.1761     3.8103     3.8103     0.0000
 14 C      6.0295     6.0000    -0.0295     3.9595     3.9595    -0.0000
 15 C      6.0197     6.0000    -0.0197     3.9349     3.9349     0.0000
 16 H      0.9446     1.0000     0.0554     0.9833     0.9833     0.0000
 17 H      0.9310     1.0000     0.0690     0.9996     0.9996     0.0000
 18 H      0.9400     1.0000     0.0600     0.9836     0.9836    -0.0000
 19 H      0.9221     1.0000     0.0779     0.9987     0.9987    -0.0000
 20 H      0.9666     1.0000     0.0334     0.9909     0.9909     0.0000
 21 H      0.9251     1.0000     0.0749     1.0114     1.0114     0.0000
 22 N      6.7426     7.0000     0.2574     3.9756     3.9756     0.0000
 23 O      8.2372     8.0000    -0.2372     1.9585     1.9585    -0.0000
 24 O      8.2614     8.0000    -0.2614     1.9226     1.9226    -0.0000
 25 H      0.9809     1.0000     0.0191     1.0300     1.0300     0.0000
 26 H      0.9474     1.0000     0.0526     0.9912     0.9912    -0.0000
 27 H      0.9639     1.0000     0.0361     1.0018     1.0018     0.0000
 28 H      0.9472     1.0000     0.0528     0.9919     0.9919    -0.0000

  Mayer bond orders larger than 0.100000
B(  0-C ,  1-C ) :   1.0338 B(  0-C , 26-H ) :   0.9615 B(  0-C , 27-H ) :   0.9681 
B(  0-C , 28-H ) :   0.9612 B(  1-C ,  2-C ) :   1.3758 B(  1-C ,  6-C ) :   1.3787 
B(  2-C ,  3-C ) :   1.3862 B(  2-C , 25-H ) :   0.9900 B(  3-C ,  4-C ) :   1.4050 
B(  3-C , 22-N ) :   0.8676 B(  4-C ,  5-C ) :   1.4015 B(  4-C ,  9-C ) :   1.0286 
B(  5-C ,  6-C ) :   1.3973 B(  5-C ,  8-H ) :   0.9927 B(  6-C ,  7-H ) :   0.9989 
B(  9-C , 10-H ) :   0.9065 B(  9-C , 11-C ) :   0.9398 B(  9-C , 21-H ) :   0.9060 
B( 11-C , 12-O ) :   2.1665 B( 11-C , 13-C ) :   0.9925 B( 13-C , 14-C ) :   0.9361 
B( 13-C , 15-C ) :   0.9419 B( 13-C , 20-H ) :   0.9483 B( 14-C , 15-C ) :   1.0411 
B( 14-C , 18-H ) :   0.9627 B( 14-C , 19-H ) :   0.9592 B( 15-C , 16-H ) :   0.9607 
B( 15-C , 17-H ) :   0.9523 B( 22-N , 23-O ) :   1.5706 B( 22-N , 24-O ) :   1.5039 
B( 23-O , 24-O ) :   0.2584 

-------
TIMINGS
-------

Total SCF time: 0 days 0 hours 5 min 27 sec 

Total time                  ....     327.699 sec
Sum of individual times     ....     327.435 sec  ( 99.9%)

Fock matrix formation       ....     323.563 sec  ( 98.7%)
  XC integration            ....      10.975 sec  (  3.4% of F)
    Basis function eval.    ....       3.189 sec  ( 29.1% of XC)
    Density eval.           ....       2.168 sec  ( 19.8% of XC)
    XC-Functional eval.     ....       2.472 sec  ( 22.5% of XC)
    XC-Potential eval.      ....       2.855 sec  ( 26.0% of XC)
Diagonalization             ....       0.093 sec  (  0.0%)
Density matrix formation    ....       0.024 sec  (  0.0%)
Population analysis         ....       0.011 sec  (  0.0%)
Initial guess               ....       0.964 sec  (  0.3%)
Orbital Transformation      ....       0.000 sec  (  0.0%)
Orbital Orthonormalization  ....       0.000 sec  (  0.0%)
DIIS solution               ....       0.035 sec  (  0.0%)
SOSCF solution              ....       0.062 sec  (  0.0%)
Grid generation             ....       2.684 sec  (  0.8%)


-------------------------------------------------------------------------------
                          DFT DISPERSION CORRECTION                            
                                                                               
                              DFTD3 V3.1  Rev 1                                
                              USING zero damping                               
-------------------------------------------------------------------------------
The omegaB97X-D3 functional is recognized. Fit by Chai et al.
Active option DFTDOPT                   ...         3   

molecular C6(AA) [au] = 8765.111476 


            DFT-D V3
 parameters
 s6 scaling factor         :     1.0000 
 rs6 scaling factor        :     1.2810 
 s8 scaling factor         :     1.0000 
 rs8 scaling factor        :     1.0940 
 Damping factor alpha6     :    14.0000 
 Damping factor alpha8     :    16.0000 
 ad hoc parameters k1-k3   :    16.0000     1.3333    -4.0000 

 Edisp/kcal,au: -7.485070614487  -0.011928218020 
 E6   /kcal   :  -3.342698858 
 E8   /kcal   :  -4.142371757 
 % E8         :  55.341785936 

-------------------------   ----------------
Dispersion correction           -0.011928218
-------------------------   ----------------


-------------------------   --------------------
FINAL SINGLE POINT ENERGY      -744.668029461324
-------------------------   --------------------

------------------------------------------------------------------------------
                         ORCA SCF GRADIENT CALCULATION
------------------------------------------------------------------------------

Gradient of the Kohn-Sham DFT energy:
Kohn-Sham wavefunction type      ... RKS
Hartree-Fock exchange scaling    ...    0.196
Number of operators              ...    1
Number of atoms                  ...   29
Basis set dimensions             ...  289
Integral neglect threshold       ... 2.5e-11
Integral primitive cutoff        ... 2.5e-12

Nuclear repulsion gradient       ... done
One Electron Gradient            ... done
Pre-screening matrix             ... done
Starting the two electron gradient:
Two electron gradient done
Exchange-correlation gradient    ... done
Dispersion correction            ... done

------------------
CARTESIAN GRADIENT
------------------

   1   C   :   -0.004283095    0.001265831    0.001657597
   2   C   :    0.002016575    0.001734584    0.000035900
   3   C   :   -0.004671535   -0.001022825    0.002063566
   4   C   :    0.015655226    0.015348567   -0.001051912
[...]
      dz2     :     0.006849  d :     0.018606
      dxz     :     0.004193
      dyz     :     0.005608
      dx2y2   :     0.001014
      dxy     :     0.000942
 13 C s       :     3.185260  s :     3.185260
      pz      :     0.978936  p :     2.958014
      px      :     0.921142
      py      :     1.057936
      dz2     :     0.007733  d :     0.040301
      dxz     :     0.008777
      dyz     :     0.006992
      dx2y2   :     0.009730
      dxy     :     0.007069
 14 C s       :     3.105101  s :     3.105101
      pz      :     1.016012  p :     2.907702
      px      :     0.994455
      py      :     0.897235
      dz2     :     0.004799  d :     0.036981
      dxz     :     0.006129
      dyz     :     0.009057
      dx2y2   :     0.007462
      dxy     :     0.009534
 15 C s       :     3.076948  s :     3.076948
      pz      :     0.953869  p :     2.913330
      px      :     0.958448
      py      :     1.001013
      dz2     :     0.007921  d :     0.037086
      dxz     :     0.008647
      dyz     :     0.007286
      dx2y2   :     0.006091
      dxy     :     0.007141
 16 H s       :     0.917963  s :     0.917963
      pz      :     0.003786  p :     0.022826
      px      :     0.011444
      py      :     0.007596
 17 H s       :     0.901569  s :     0.901569
      pz      :     0.013434  p :     0.023259
      px      :     0.005681
      py      :     0.004144
 18 H s       :     0.912395  s :     0.912395
      pz      :     0.009446  p :     0.022853
      px      :     0.009299
      py      :     0.004107
 19 H s       :     0.892776  s :     0.892776
      pz      :     0.006504  p :     0.022975
      px      :     0.006943
      py      :     0.009528
 20 H s       :     0.939605  s :     0.939605
      pz      :     0.011797  p :     0.021884
      px      :     0.003132
      py      :     0.006955
 21 H s       :     0.898258  s :     0.898258
      pz      :     0.012259  p :     0.023625
      px      :     0.004099
      py      :     0.007267
 22 N s       :     3.309445  s :     3.309445
      pz      :     1.080519  p :     3.325222
      px      :     1.112538
      py      :     1.132165
      dz2     :     0.028546  d :     0.123110
      dxz     :     0.019159
      dyz     :     0.021140
      dx2y2   :     0.023013
      dxy     :     0.031251
 23 O s       :     3.855854  s :     3.855854
      pz      :     1.367249  p :     4.353530
      px      :     1.656178
      py      :     1.330103
      dz2     :     0.004448  d :     0.023492
      dxz     :     0.001974
      dyz     :     0.007923
      dx2y2   :     0.004507
      dxy     :     0.004639
 24 O s       :     3.858172  s :     3.858172
      pz      :     1.332977  p :     4.376685
      px      :     1.259224
      py      :     1.784483
      dz2     :     0.004808  d :     0.022847
      dxz     :     0.008289
      dyz     :     0.001795
      dx2y2   :     0.004873
      dxy     :     0.003082
 25 H s       :     0.948781  s :     0.948781
      pz      :     0.004932  p :     0.024061
      px      :     0.003968
      py      :     0.015161
 26 H s       :     0.919278  s :     0.919278
      pz      :     0.010156  p :     0.023519
      px      :     0.007812
      py      :     0.005551
 27 H s       :     0.935979  s :     0.935979
      pz      :     0.005305  p :     0.023280
      px      :     0.004123
      py      :     0.013852
 28 H s       :     0.918646  s :     0.918646
      pz      :     0.011283  p :     0.023566
      px      :     0.004750
      py      :     0.007532


                     *******************************
                     * LOEWDIN POPULATION ANALYSIS *
                     *******************************

----------------------
LOEWDIN ATOMIC CHARGES
----------------------
   0 C :   -0.053316
   1 C :   -0.027612
   2 C :   -0.010772
   3 C :   -0.015046
   4 C :   -0.005902
   5 C :   -0.019742
   6 C :   -0.010417
   7 H :    0.035369
   8 H :    0.034281
   9 C :   -0.061863
  10 H :    0.046956
  11 C :    0.096647
  12 O :   -0.167175
  13 C :   -0.088310
  14 C :   -0.011906
  15 C :   -0.026302
  16 H :    0.033233
  17 H :    0.039321
  18 H :    0.034479
  19 H :    0.040728
  20 H :    0.030871
  21 H :    0.054378
  22 N :    0.288048
  23 O :   -0.191326
  24 O :   -0.207364
  25 H :    0.042093
  26 H :    0.041990
  27 H :    0.036022
  28 H :    0.042639

-------------------------------
LOEWDIN REDUCED ORBITAL CHARGES
-------------------------------
  0 C s       :     2.831271  s :     2.831271
      pz      :     1.069250  p :     3.151422
      px      :     1.014191
      py      :     1.067981
      dz2     :     0.010645  d :     0.070624
      dxz     :     0.018557
      dyz     :     0.011319
      dx2y2   :     0.021733
      dxy     :     0.008370
  1 C s       :     2.850040  s :     2.850040
      pz      :     0.953281  p :     3.069225
      px      :     1.039908
      py      :     1.076036
      dz2     :     0.008241  d :     0.108347
      dxz     :     0.013155
      dyz     :     0.014285
      dx2y2   :     0.035792
      dxy     :     0.036874
  2 C s       :     2.858432  s :     2.858432
      pz      :     0.960801  p :     3.062662
      px      :     1.045239
      py      :     1.056622
      dz2     :     0.007169  d :     0.089678
      dxz     :     0.015488
      dyz     :     0.007343
      dx2y2   :     0.033774
      dxy     :     0.025904
  3 C s       :     2.860382  s :     2.860382
      pz      :     1.049059  p :     3.032977
      px      :     1.015584
      py      :     0.968333
      dz2     :     0.012266  d :     0.121688
      dxz     :     0.013557
      dyz     :     0.013534
      dx2y2   :     0.032542
      dxy     :     0.049789
  4 C s       :     2.848392  s :     2.848392
      pz      :     0.946679  p :     3.050934
      px      :     1.039306
      py      :     1.064949
      dz2     :     0.009163  d :     0.106577
      dxz     :     0.012206
      dyz     :     0.015999
      dx2y2   :     0.034424
      dxy     :     0.034784
  5 C s       :     2.855696  s :     2.855696
      pz      :     0.982140  p :     3.073122
      px      :     1.055286
      py      :     1.035697
      dz2     :     0.006694  d :     0.090924
      dxz     :     0.013900
      dyz     :     0.007093
      dx2y2   :     0.031862
      dxy     :     0.031374
  6 C s       :     2.858697  s :     2.858697
      pz      :     0.963159  p :     3.061120
      px      :     1.050536
      py      :     1.047425
      dz2     :     0.007574  d :     0.090600
      dxz     :     0.010893
      dyz     :     0.009833
      dx2y2   :     0.028320
      dxy     :     0.033979
  7 H s       :     0.897721  s :     0.897721
      pz      :     0.013271  p :     0.066910
      px      :     0.023910
      py      :     0.029728
  8 H s       :     0.898665  s :     0.898665
      pz      :     0.015164  p :     0.067054
      px      :     0.013210
      py      :     0.038680
  9 C s       :     2.838241  s :     2.838241
      pz      :     1.068059  p :     3.138895
      px      :     1.005757
      py      :     1.065079
      dz2     :     0.016104  d :     0.084727
      dxz     :     0.022896
      dyz     :     0.009152
      dx2y2   :     0.026079
      dxy     :     0.010496
 10 H s       :     0.885956  s :     0.885956
      pz      :     0.014939  p :     0.067089
      px      :     0.011680
      py      :     0.040470
 11 C s       :     2.877733  s :     2.877733
      pz      :     0.994395  p :     2.802220
      px      :     1.034433
      py      :     0.773392
      dz2     :     0.057790  d :     0.223400
      dxz     :     0.085267
      dyz     :     0.036178
      dx2y2   :     0.021816
      dxy     :     0.022349
 12 O s       :     3.537867  s :     3.537867
      pz      :     1.472684  p :     4.597595
      px      :     1.763828
      py      :     1.361082
      dz2     :     0.012381  d :     0.031713
      dxz     :     0.007689
      dyz     :     0.008746
      dx2y2   :     0.001400
      dxy     :     0.001497
 13 C s       :     2.834724  s :     2.834724
      pz      :     1.058448  p :     3.152311
      px      :     0.999638
      py      :     1.094226
      dz2     :     0.019255  d :     0.101275
      dxz     :     0.023328
      dyz     :     0.016945
      dx2y2   :     0.025168
      dxy     :     0.016578
 14 C s       :     2.827828  s :     2.827828
      pz      :     1.071912  p :     3.092511
      px      :     1.048461
      py      :     0.972138
      dz2     :     0.010455  d :     0.091567
      dxz     :     0.015775
      dyz     :     0.022758
      dx2y2   :     0.018281
      dxy     :     0.024298
 15 C s       :     2.824731  s :     2.824731
      pz      :     1.017918  p :     3.109692
      px      :     1.030865
      py      :     1.060909
      dz2     :     0.021760  d :     0.091879
      dxz     :     0.021358
      dyz     :     0.016639
      dx2y2   :     0.014561
      dxy     :     0.017561
 16 H s       :     0.898539  s :     0.898539
      pz      :     0.012215  p :     0.068229
      px      :     0.033104
      py      :     0.022910
 17 H s       :     0.890326  s :     0.890326
      pz      :     0.039558  p :     0.070353
      px      :     0.017028
      py      :     0.013767
 18 H s       :     0.897404  s :     0.897404
      pz      :     0.027966  p :     0.068117
      px      :     0.027483
      py      :     0.012668
 19 H s       :     0.889827  s :     0.889827
      pz      :     0.020039  p :     0.069445
      px      :     0.020627
      py      :     0.028779
 20 H s       :     0.898831  s :     0.898831
      pz      :     0.035071  p :     0.070298
      px      :     0.012515
      py      :     0.022712
 21 H s       :     0.875538  s :     0.875538
      pz      :     0.036505  p :     0.070085
      px      :     0.013817
      py      :     0.019763
 22 N s       :     3.046027  s :     3.046027
      pz      :     1.113108  p :     3.411900
      px      :     1.136011
      py      :     1.162780
      dz2     :     0.050557  d :     0.254026
      dxz     :     0.044453
      dyz     :     0.046483
      dx2y2   :     0.048986
      dxy     :     0.063547
 23 O s       :     3.606789  s :     3.606789
      pz      :     1.431188  p :     4.539768
      px      :     1.664676
      py      :     1.443904
      dz2     :     0.006230  d :     0.044769
      dxz     :     0.003620
      dyz     :     0.017693
      dx2y2   :     0.009673
      dxy     :     0.007553
 24 O s       :     3.607756  s :     3.607756
      pz      :     1.408604  p :     4.556003
      px      :     1.373515
      py      :     1.773884
      dz2     :     0.006728  d :     0.043606
      dxz     :     0.019323
      dyz     :     0.002861
      dx2y2   :     0.009900
      dxy     :     0.004795
 25 H s       :     0.885845  s :     0.885845
      pz      :     0.015161  p :     0.072062
      px      :     0.013415
      py      :     0.043486
 26 H s       :     0.892783  s :     0.892783
      pz      :     0.027809  p :     0.065227
      px      :     0.023090
      py      :     0.014328
 27 H s       :     0.898991  s :     0.898991
      pz      :     0.014000  p :     0.064987
      px      :     0.012274
      py      :     0.038713
 28 H s       :     0.892077  s :     0.892077
      pz      :     0.030863  p :     0.065284
      px      :     0.014052
      py      :     0.020368


                      *****************************
                      * MAYER POPULATION ANALYSIS *
                      *****************************

  NA   - Mulliken gross atomic population
  ZA   - Total nuclear charge
  QA   - Mulliken gross atomic charge
  VA   - Mayer's total valence
  BVA  - Mayer's bonded valence
  FA   - Mayer's free valence

  ATOM       NA         ZA         QA         VA         BVA        FA
  0 C      5.9700     6.0000     0.0300     3.9097     3.9097    -0.0000
  1 C      6.1029     6.0000    -0.1029     3.9226     3.9226    -0.0000
  2 C      6.0404     6.0000    -0.0404     3.9070     3.9070    -0.0000
  3 C      5.8603     6.0000     0.1397     3.8962     3.8962    -0.0000
  4 C      6.0781     6.0000    -0.0781     4.0278     4.0278    -0.0000
  5 C      6.0561     6.0000    -0.0561     3.9343     3.9343     0.0000
  6 C      5.9959     6.0000     0.0041     3.8672     3.8672     0.0000
  7 H      0.9850     1.0000     0.0150     0.9923     0.9923     0.0000
  8 H      0.9871     1.0000     0.0129     0.9939     0.9939    -0.0000
  9 C      5.8936     6.0000     0.1064     3.7423     3.7423    -0.0000
 10 H      0.9559     1.0000     0.0441     0.9989     0.9989     0.0000
 11 C      5.9308     6.0000     0.0692     4.2178     4.2178    -0.0000
 12 O      8.2175     8.0000    -0.2175     2.2752     2.2752    -0.0000
 13 C      6.1836     6.0000    -0.1836     3.8030     3.8030     0.0000
 14 C      6.0498     6.0000    -0.0498     3.9579     3.9579    -0.0000
 15 C      6.0274     6.0000    -0.0274     3.9291     3.9291    -0.0000
 16 H      0.9408     1.0000     0.0592     0.9823     0.9823    -0.0000
 17 H      0.9248     1.0000     0.0752     1.0006     1.0006    -0.0000
 18 H      0.9352     1.0000     0.0648     0.9822     0.9822     0.0000
 19 H      0.9158     1.0000     0.0842     0.9975     0.9975    -0.0000
 20 H      0.9615     1.0000     0.0385     0.9890     0.9890    -0.0000
 21 H      0.9219     1.0000     0.0781     1.0088     1.0088     0.0000
 22 N      6.7578     7.0000     0.2422     3.9692     3.9692    -0.0000
 23 O      8.2329     8.0000    -0.2329     1.9617     1.9617    -0.0000
 24 O      8.2577     8.0000    -0.2577     1.9269     1.9269    -0.0000
 25 H      0.9728     1.0000     0.0272     1.0263     1.0263    -0.0000
 26 H      0.9428     1.0000     0.0572     0.9895     0.9895     0.0000
 27 H      0.9593     1.0000     0.0407     0.9995     0.9995     0.0000
 28 H      0.9422     1.0000     0.0578     0.9900     0.9900    -0.0000

  Mayer bond orders larger than 0.100000
B(  0-C ,  1-C ) :   1.0344 B(  0-C , 26-H ) :   0.9626 B(  0-C , 27-H ) :   0.9692 
B(  0-C , 28-H ) :   0.9623 B(  1-C ,  2-C ) :   1.3721 B(  1-C ,  6-C ) :   1.3862 
B(  2-C ,  3-C ) :   1.3994 B(  2-C , 25-H ) :   0.9848 B(  3-C ,  4-C ) :   1.4131 
B(  3-C , 22-N ) :   0.8346 B(  4-C ,  5-C ) :   1.4030 B(  4-C ,  9-C ) :   1.0220 
B(  5-C ,  6-C ) :   1.4019 B(  5-C ,  8-H ) :   0.9860 B(  6-C ,  7-H ) :   0.9941 
B(  9-C , 10-H ) :   0.9057 B(  9-C , 11-C ) :   0.9464 B(  9-C , 21-H ) :   0.9086 
B( 11-C , 12-O ) :   2.1693 B( 11-C , 13-C ) :   0.9802 B( 13-C , 14-C ) :   0.9371 
B( 13-C , 15-C ) :   0.9475 B( 13-C , 20-H ) :   0.9489 B( 14-C , 15-C ) :   1.0375 
B( 14-C , 18-H ) :   0.9625 B( 14-C , 19-H ) :   0.9581 B( 15-C , 16-H ) :   0.9591 
B( 15-C , 17-H ) :   0.9477 B( 22-N , 23-O ) :   1.5790 B( 22-N , 24-O ) :   1.5178 
B( 23-O , 24-O ) :   0.2606 

-------
TIMINGS
-------

Total SCF time: 0 days 0 hours 2 min 42 sec 

Total time                  ....     162.026 sec
Sum of individual times     ....     161.757 sec  ( 99.8%)

Fock matrix formation       ....     159.016 sec  ( 98.1%)
  XC integration            ....       6.745 sec  (  4.2% of F)
    Basis function eval.    ....       2.039 sec  ( 30.2% of XC)
    Density eval.           ....       1.348 sec  ( 20.0% of XC)
    XC-Functional eval.     ....       1.585 sec  ( 23.5% of XC)
    XC-Potential eval.      ....       1.586 sec  ( 23.5% of XC)
Diagonalization             ....       0.014 sec  (  0.0%)
Density matrix formation    ....       0.014 sec  (  0.0%)
Population analysis         ....       0.010 sec  (  0.0%)
Initial guess               ....       0.013 sec  (  0.0%)
Orbital Transformation      ....       0.000 sec  (  0.0%)
Orbital Orthonormalization  ....       0.010 sec  (  0.0%)
DIIS solution               ....       0.003 sec  (  0.0%)
SOSCF solution              ....       0.060 sec  (  0.0%)
Grid generation             ....       2.627 sec  (  1.6%)


-------------------------------------------------------------------------------
                          DFT DISPERSION CORRECTION                            
                                                                               
                              DFTD3 V3.1  Rev 1                                
                              USING zero damping                               
-------------------------------------------------------------------------------
The omegaB97X-D3 functional is recognized. Fit by Chai et al.
Active option DFTDOPT                   ...         3   

molecular C6(AA) [au] = 8777.711670 


            DFT-D V3
 parameters
 s6 scaling factor         :     1.0000 
 rs6 scaling factor        :     1.2810 
 s8 scaling factor         :     1.0000 
 rs8 scaling factor        :     1.0940 
 Damping factor alpha6     :    14.0000 
 Damping factor alpha8     :    16.0000 
 ad hoc parameters k1-k3   :    16.0000     1.3333    -4.0000 

 Edisp/kcal,au: -7.473834475533  -0.011910312094 
 E6   /kcal   :  -3.326093087 
 E8   /kcal   :  -4.147741389 
 % E8         :  55.496832344 

-------------------------   ----------------
Dispersion correction           -0.011910312
-------------------------   ----------------


-------------------------   --------------------
FINAL SINGLE POINT ENERGY      -744.671986759835
-------------------------   --------------------

                                *** OPTIMIZATION RUN DONE ***

                            ***************************************
                            *     ORCA property calculations      *
                            ***************************************

                                    ---------------------
                                    Active property flags
                                    ---------------------
   (+) Dipole Moment


------------------------------------------------------------------------------
                       ORCA ELECTRIC PROPERTIES CALCULATION
------------------------------------------------------------------------------

Dipole Moment Calculation                       ... on
Quadrupole Moment Calculation                   ... off
Polarizability Calculation                      ... off
GBWName                                         ... 063354978.gbw
Electron density file                           ... 063354978.scfp
The origin for moment calculation is the CENTER OF MASS  = ( 0.010719, -0.001992  0.047186)

-------------
DIPOLE MOMENT
-------------
                                X             Y             Z
Electronic contribution:     -0.81704       5.93514      -0.65075
Nuclear contribution   :      0.19216      -7.41957      -0.07956
                        -----------------------------------------
Total Dipole Moment    :     -0.62487      -1.48443      -0.73031
                        -----------------------------------------
Magnitude (a.u.)       :      1.76843
Magnitude (Debye)      :      4.49499



--------------------
Rotational spectrum 
--------------------
 
Rotational constants in cm-1:     0.038543     0.010820     0.009276 
Rotational constants in MHz :  1155.477774   324.368474   278.093478 

 Dipole components along the rotational axes: 
x,y,z [a.u.] :    -0.615188    -1.505660    -0.694168 
x,y,z [Debye]:    -1.563683    -3.827084    -1.764435 

 

Timings for individual modules:

Sum of individual times         ...     3953.744 sec (=  65.896 min)
GTO integral calculation        ...        5.924 sec (=   0.099 min)   0.1 %
SCF iterations                  ...     2778.511 sec (=  46.309 min)  70.3 %
SCF Gradient evaluation         ...     1162.401 sec (=  19.373 min)  29.4 %
Geometry relaxation             ...        6.907 sec (=   0.115 min)   0.2 %
                             ****ORCA TERMINATED NORMALLY****
TOTAL RUN TIME: 0 days 1 hours 5 minutes 55 seconds 644 msec
